
     Program PWSCF v.7.4 starts on 16May2025 at 21:48:22 

     This program is part of the open-source Quantum ESPRESSO suite
     for quantum simulation of materials; please cite
         "P. Giannozzi et al., J. Phys.:Condens. Matter 21 395502 (2009);
         "P. Giannozzi et al., J. Phys.:Condens. Matter 29 465901 (2017);
         "P. Giannozzi et al., J. Chem. Phys. 152 154105 (2020);
          URL http://www.quantum-espresso.org", 
     in publications or presentations arising from this work. More details at
     http://www.quantum-espresso.org/quote

     Parallel version (MPI), running on     2 processors

     MPI processes distributed on     1 nodes
     24312 MiB available memory on the printing compute node when the environment starts
 
     Waiting for input...
     Reading input from standard input

     Current dimensions of program PWSCF are:
     Max number of different atomic species (ntypx) = 10
     Max number of k-points (npk) =  40000
     Max angular momentum in pseudopotentials (lmaxx) =  4
     Message from routine setup:
     using ibrav=0 with symmetry is DISCOURAGED, use correct ibrav instead
 
     R & G space division:  proc/nbgrp/npool/nimage =       2
     Subspace diagonalization in iterative solution of the eigenvalue problem:
     a serial algorithm will be used

 
     Parallelization info
     --------------------
     sticks:   dense  smooth     PW     G-vecs:    dense   smooth      PW
     Min        6322    3158    850               534752   189118   26460
     Max        6323    3159    851               534755   189119   26463
     Sum       12645    6317   1701              1069507   378237   52923
 
     Using Slab Decomposition
 


     bravais-lattice index     =            0
     lattice parameter (alat)  =      25.7291  a.u.
     unit-cell volume          =   17032.2583 (a.u.)^3
     number of atoms/cell      =           20
     number of atomic types    =            1
     number of electrons       =       180.00
     number of Kohn-Sham states=          108
     kinetic-energy cutoff     =      30.0000  Ry
     charge density cutoff     =     240.0000  Ry
     scf convergence threshold =      4.0E-09
     mixing beta               =       0.4000
     number of iterations used =            8  plain     mixing
     Exchange-correlation= SLA  PW   PBE  PBE
                           (   1   4   3   4   0   0   0)

     GPU acceleration is ACTIVE.  1 visible GPUs per MPI rank
     GPU-aware MPI enabled


     GPU used by master process:

        Device Number: 0
        Device name: NVIDIA RTX A2000 12GB
        Compute capability : 86
        Ratio of single to double precision performance  : 32
        Memory Clock Rate (KHz): 6001000
        Memory Bus Width (bits): 192
        Peak Memory Bandwidth (GB/s): 288.05

     celldm(1)=  25.729069  celldm(2)=   0.000000  celldm(3)=   0.000000
     celldm(4)=   0.000000  celldm(5)=   0.000000  celldm(6)=   0.000000

     crystal axes: (cart. coord. in units of alat)
               a(1) = (   1.000000   0.000000   0.000000 )  
               a(2) = (   0.000000   1.000000   0.000000 )  
               a(3) = (   0.000000   0.000000   1.000000 )  

     reciprocal axes: (cart. coord. in units 2 pi/alat)
               b(1) = (  1.000000  0.000000  0.000000 )  
               b(2) = (  0.000000  1.000000  0.000000 )  
               b(3) = (  0.000000  0.000000  1.000000 )  


     PseudoPot. # 1 for Cs read from file:
     ../pseudo/Cs_pbe_v1.uspp.F.UPF
     MD5 check sum: 3476d69cb178dfad3ffaa59df4e07ca4
     Pseudo is Ultrasoft + core correction, Zval =  9.0
     Generated by new atomic code, or converted to UPF format
     Using radial grid of  905 points,  6 beta functions with: 
                l(1) =   0
                l(2) =   0
                l(3) =   1
                l(4) =   1
                l(5) =   2
                l(6) =   2
     Q(r) pseudized with  6 coefficients,  rinner =    1.500   1.500   1.500
                                                       1.500   1.500

     atomic species   valence    mass     pseudopotential
     Cs                9.00   132.90545     Cs( 1.00)

     24 Sym. Ops. (no inversion) found (21 have fractional translation)


                                    s                        frac. trans.

      isym =  1     identity                                     

 cryst.   s( 1) = (     1          0          0      )
                  (     0          1          0      )
                  (     0          0          1      )

 cart.    s( 1) = (  1.0000000  0.0000000  0.0000000 )
                  (  0.0000000  1.0000000  0.0000000 )
                  (  0.0000000  0.0000000  1.0000000 )


      isym =  2     180 deg rotation - cart. axis [0,0,1]        

 cryst.   s( 2) = (    -1          0          0      )    f =(  0.5000000 )
                  (     0         -1          0      )       (  0.0000000 )
                  (     0          0          1      )       (  0.5000000 )

 cart.    s( 2) = ( -1.0000000  0.0000000  0.0000000 )    f =(  0.5000000 )
                  (  0.0000000 -1.0000000  0.0000000 )       (  0.0000000 )
                  (  0.0000000  0.0000000  1.0000000 )       (  0.5000000 )


      isym =  3     180 deg rotation - cart. axis [0,1,0]        

 cryst.   s( 3) = (    -1          0          0      )    f =(  0.0000000 )
                  (     0          1          0      )       (  0.5000000 )
                  (     0          0         -1      )       (  0.5000000 )

 cart.    s( 3) = ( -1.0000000  0.0000000  0.0000000 )    f =(  0.0000000 )
                  (  0.0000000  1.0000000  0.0000000 )       (  0.5000000 )
                  (  0.0000000  0.0000000 -1.0000000 )       (  0.5000000 )


      isym =  4     180 deg rotation - cart. axis [1,0,0]        

 cryst.   s( 4) = (     1          0          0      )    f =( -0.5000000 )
                  (     0         -1          0      )       (  0.5000000 )
                  (     0          0         -1      )       (  0.0000000 )

 cart.    s( 4) = (  1.0000000  0.0000000  0.0000000 )    f =( -0.5000000 )
                  (  0.0000000 -1.0000000  0.0000000 )       (  0.5000000 )
                  (  0.0000000  0.0000000 -1.0000000 )       (  0.0000000 )


      isym =  5     180 deg rotation - cart. axis [1,1,0]        

 cryst.   s( 5) = (     0          1          0      )    f =(  0.2500000 )
                  (     1          0          0      )       ( -0.2500000 )
                  (     0          0         -1      )       ( -0.2500000 )

 cart.    s( 5) = (  0.0000000  1.0000000  0.0000000 )    f =(  0.2500000 )
                  (  1.0000000  0.0000000  0.0000000 )       ( -0.2500000 )
                  (  0.0000000  0.0000000 -1.0000000 )       ( -0.2500000 )


      isym =  6     180 deg rotation - cart. axis [1,-1,0]       

 cryst.   s( 6) = (     0         -1          0      )    f =(  0.2500000 )
                  (    -1          0          0      )       (  0.2500000 )
                  (     0          0         -1      )       (  0.2500000 )

 cart.    s( 6) = (  0.0000000 -1.0000000  0.0000000 )    f =(  0.2500000 )
                  ( -1.0000000  0.0000000  0.0000000 )       (  0.2500000 )
                  (  0.0000000  0.0000000 -1.0000000 )       (  0.2500000 )


      isym =  7      90 deg rotation - cart. axis [0,0,-1]       

 cryst.   s( 7) = (     0         -1          0      )    f =( -0.2500000 )
                  (     1          0          0      )       ( -0.2500000 )
                  (     0          0          1      )       (  0.2500000 )

 cart.    s( 7) = (  0.0000000  1.0000000  0.0000000 )    f =( -0.2500000 )
                  ( -1.0000000  0.0000000  0.0000000 )       ( -0.2500000 )
                  (  0.0000000  0.0000000  1.0000000 )       (  0.2500000 )


      isym =  8      90 deg rotation - cart. axis [0,0,1]        

 cryst.   s( 8) = (     0          1          0      )    f =( -0.2500000 )
                  (    -1          0          0      )       (  0.2500000 )
                  (     0          0          1      )       ( -0.2500000 )

 cart.    s( 8) = (  0.0000000 -1.0000000  0.0000000 )    f =( -0.2500000 )
                  (  1.0000000  0.0000000  0.0000000 )       (  0.2500000 )
                  (  0.0000000  0.0000000  1.0000000 )       ( -0.2500000 )


      isym =  9     180 deg rotation - cart. axis [1,0,1]        

 cryst.   s( 9) = (     0          0          1      )    f =( -0.2500000 )
                  (     0         -1          0      )       ( -0.2500000 )
                  (     1          0          0      )       (  0.2500000 )

 cart.    s( 9) = (  0.0000000  0.0000000  1.0000000 )    f =( -0.2500000 )
                  (  0.0000000 -1.0000000  0.0000000 )       ( -0.2500000 )
                  (  1.0000000  0.0000000  0.0000000 )       (  0.2500000 )


      isym = 10     180 deg rotation - cart. axis [-1,0,1]       

 cryst.   s(10) = (     0          0         -1      )    f =(  0.2500000 )
                  (     0         -1          0      )       (  0.2500000 )
                  (    -1          0          0      )       (  0.2500000 )

 cart.    s(10) = (  0.0000000  0.0000000 -1.0000000 )    f =(  0.2500000 )
                  (  0.0000000 -1.0000000  0.0000000 )       (  0.2500000 )
                  ( -1.0000000  0.0000000  0.0000000 )       (  0.2500000 )


      isym = 11      90 deg rotation - cart. axis [0,1,0]        

 cryst.   s(11) = (     0          0         -1      )    f =(  0.2500000 )
                  (     0          1          0      )       ( -0.2500000 )
                  (     1          0          0      )       ( -0.2500000 )

 cart.    s(11) = (  0.0000000  0.0000000  1.0000000 )    f =(  0.2500000 )
                  (  0.0000000  1.0000000  0.0000000 )       ( -0.2500000 )
                  ( -1.0000000  0.0000000  0.0000000 )       ( -0.2500000 )


      isym = 12      90 deg rotation - cart. axis [0,-1,0]       

 cryst.   s(12) = (     0          0          1      )    f =( -0.2500000 )
                  (     0          1          0      )       (  0.2500000 )
                  (    -1          0          0      )       ( -0.2500000 )

 cart.    s(12) = (  0.0000000  0.0000000 -1.0000000 )    f =( -0.2500000 )
                  (  0.0000000  1.0000000  0.0000000 )       (  0.2500000 )
                  (  1.0000000  0.0000000  0.0000000 )       ( -0.2500000 )


      isym = 13     180 deg rotation - cart. axis [0,1,1]        

 cryst.   s(13) = (    -1          0          0      )    f =( -0.2500000 )
                  (     0          0          1      )       (  0.2500000 )
                  (     0          1          0      )       ( -0.2500000 )

 cart.    s(13) = ( -1.0000000  0.0000000  0.0000000 )    f =( -0.2500000 )
                  (  0.0000000  0.0000000  1.0000000 )       (  0.2500000 )
                  (  0.0000000  1.0000000  0.0000000 )       ( -0.2500000 )


      isym = 14     180 deg rotation - cart. axis [0,1,-1]       

 cryst.   s(14) = (    -1          0          0      )    f =(  0.2500000 )
                  (     0          0         -1      )       (  0.2500000 )
                  (     0         -1          0      )       (  0.2500000 )

 cart.    s(14) = ( -1.0000000  0.0000000  0.0000000 )    f =(  0.2500000 )
                  (  0.0000000  0.0000000 -1.0000000 )       (  0.2500000 )
                  (  0.0000000 -1.0000000  0.0000000 )       (  0.2500000 )


      isym = 15      90 deg rotation - cart. axis [-1,0,0]       

 cryst.   s(15) = (     1          0          0      )    f =(  0.2500000 )
                  (     0          0         -1      )       ( -0.2500000 )
                  (     0          1          0      )       ( -0.2500000 )

 cart.    s(15) = (  1.0000000  0.0000000  0.0000000 )    f =(  0.2500000 )
                  (  0.0000000  0.0000000  1.0000000 )       ( -0.2500000 )
                  (  0.0000000 -1.0000000  0.0000000 )       ( -0.2500000 )


      isym = 16      90 deg rotation - cart. axis [1,0,0]        

 cryst.   s(16) = (     1          0          0      )    f =( -0.2500000 )
                  (     0          0          1      )       ( -0.2500000 )
                  (     0         -1          0      )       (  0.2500000 )

 cart.    s(16) = (  1.0000000  0.0000000  0.0000000 )    f =( -0.2500000 )
                  (  0.0000000  0.0000000 -1.0000000 )       ( -0.2500000 )
                  (  0.0000000  1.0000000  0.0000000 )       (  0.2500000 )


      isym = 17     120 deg rotation - cart. axis [-1,-1,-1]     

 cryst.   s(17) = (     0          0          1      )
                  (     1          0          0      )
                  (     0          1          0      )

 cart.    s(17) = (  0.0000000  1.0000000  0.0000000 )
                  (  0.0000000  0.0000000  1.0000000 )
                  (  1.0000000  0.0000000  0.0000000 )


      isym = 18     120 deg rotation - cart. axis [-1,1,1]       

 cryst.   s(18) = (     0          0         -1      )    f =(  0.0000000 )
                  (    -1          0          0      )       (  0.5000000 )
                  (     0          1          0      )       (  0.5000000 )

 cart.    s(18) = (  0.0000000 -1.0000000  0.0000000 )    f =(  0.0000000 )
                  (  0.0000000  0.0000000  1.0000000 )       (  0.5000000 )
                  ( -1.0000000  0.0000000  0.0000000 )       (  0.5000000 )


      isym = 19     120 deg rotation - cart. axis [1,1,-1]       

 cryst.   s(19) = (     0          0         -1      )    f =( -0.5000000 )
                  (     1          0          0      )       (  0.5000000 )
                  (     0         -1          0      )       (  0.0000000 )

 cart.    s(19) = (  0.0000000  1.0000000  0.0000000 )    f =( -0.5000000 )
                  (  0.0000000  0.0000000 -1.0000000 )       (  0.5000000 )
                  ( -1.0000000  0.0000000  0.0000000 )       (  0.0000000 )


      isym = 20     120 deg rotation - cart. axis [1,-1,1]       

 cryst.   s(20) = (     0          0          1      )    f =(  0.5000000 )
                  (    -1          0          0      )       (  0.0000000 )
                  (     0         -1          0      )       (  0.5000000 )

 cart.    s(20) = (  0.0000000 -1.0000000  0.0000000 )    f =(  0.5000000 )
                  (  0.0000000  0.0000000 -1.0000000 )       (  0.0000000 )
                  (  1.0000000  0.0000000  0.0000000 )       (  0.5000000 )


      isym = 21     120 deg rotation - cart. axis [1,1,1]        

 cryst.   s(21) = (     0          1          0      )
                  (     0          0          1      )
                  (     1          0          0      )

 cart.    s(21) = (  0.0000000  0.0000000  1.0000000 )
                  (  1.0000000  0.0000000  0.0000000 )
                  (  0.0000000  1.0000000  0.0000000 )


      isym = 22     120 deg rotation - cart. axis [-1,1,-1]      

 cryst.   s(22) = (     0         -1          0      )    f =( -0.5000000 )
                  (     0          0         -1      )       (  0.5000000 )
                  (     1          0          0      )       (  0.0000000 )

 cart.    s(22) = (  0.0000000  0.0000000  1.0000000 )    f =( -0.5000000 )
                  ( -1.0000000  0.0000000  0.0000000 )       (  0.5000000 )
                  (  0.0000000 -1.0000000  0.0000000 )       (  0.0000000 )


      isym = 23     120 deg rotation - cart. axis [1,-1,-1]      

 cryst.   s(23) = (     0         -1          0      )    f =(  0.5000000 )
                  (     0          0          1      )       (  0.0000000 )
                  (    -1          0          0      )       (  0.5000000 )

 cart.    s(23) = (  0.0000000  0.0000000 -1.0000000 )    f =(  0.5000000 )
                  ( -1.0000000  0.0000000  0.0000000 )       (  0.0000000 )
                  (  0.0000000  1.0000000  0.0000000 )       (  0.5000000 )


      isym = 24     120 deg rotation - cart. axis [-1,-1,1]      

 cryst.   s(24) = (     0          1          0      )    f =(  0.0000000 )
                  (     0          0         -1      )       (  0.5000000 )
                  (    -1          0          0      )       (  0.5000000 )

 cart.    s(24) = (  0.0000000  0.0000000 -1.0000000 )    f =(  0.0000000 )
                  (  1.0000000  0.0000000  0.0000000 )       (  0.5000000 )
                  (  0.0000000 -1.0000000  0.0000000 )       (  0.5000000 )


   Cartesian axes

     site n.     atom                  positions (alat units)
         1        Cs     tau(   1) = (   0.0463726   0.8750000   0.7036274  )
         2        Cs     tau(   2) = (   0.3750000   0.7963726   0.9536274  )
         3        Cs     tau(   3) = (   0.4536274   0.1250000   0.2036274  )
         4        Cs     tau(   4) = (   0.1250000   0.2036274   0.4536274  )
         5        Cs     tau(   5) = (   0.5463726   0.6250000   0.2963726  )
         6        Cs     tau(   6) = (   0.8750000   0.7036274   0.0463726  )
         7        Cs     tau(   7) = (   0.9536274   0.3750000   0.7963726  )
         8        Cs     tau(   8) = (   0.6250000   0.2963726   0.5463726  )
         9        Cs     tau(   9) = (   0.7036274   0.0463726   0.8750000  )
        10        Cs     tau(  10) = (   0.2036274   0.4536274   0.1250000  )
        11        Cs     tau(  11) = (   0.2963726   0.5463726   0.6250000  )
        12        Cs     tau(  12) = (   0.7963726   0.9536274   0.3750000  )
        13        Cs     tau(  13) = (   0.0620384   0.0620384   0.0620384  )
        14        Cs     tau(  14) = (   0.1879616   0.8120384   0.3120384  )
        15        Cs     tau(  15) = (   0.4379616   0.9379616   0.5620384  )
        16        Cs     tau(  16) = (   0.3120384   0.1879616   0.8120384  )
        17        Cs     tau(  17) = (   0.5620384   0.4379616   0.9379616  )
        18        Cs     tau(  18) = (   0.6879616   0.6879616   0.6879616  )
        19        Cs     tau(  19) = (   0.9379616   0.5620384   0.4379616  )
        20        Cs     tau(  20) = (   0.8120384   0.3120384   0.1879616  )

   Crystallographic axes

     site n.     atom                  positions (cryst. coord.)
         1        Cs     tau(   1) = (  0.0463726  0.8750000  0.7036274  )
         2        Cs     tau(   2) = (  0.3750000  0.7963726  0.9536274  )
         3        Cs     tau(   3) = (  0.4536274  0.1250000  0.2036274  )
         4        Cs     tau(   4) = (  0.1250000  0.2036274  0.4536274  )
         5        Cs     tau(   5) = (  0.5463726  0.6250000  0.2963726  )
         6        Cs     tau(   6) = (  0.8750000  0.7036274  0.0463726  )
         7        Cs     tau(   7) = (  0.9536274  0.3750000  0.7963726  )
         8        Cs     tau(   8) = (  0.6250000  0.2963726  0.5463726  )
         9        Cs     tau(   9) = (  0.7036274  0.0463726  0.8750000  )
        10        Cs     tau(  10) = (  0.2036274  0.4536274  0.1250000  )
        11        Cs     tau(  11) = (  0.2963726  0.5463726  0.6250000  )
        12        Cs     tau(  12) = (  0.7963726  0.9536274  0.3750000  )
        13        Cs     tau(  13) = (  0.0620384  0.0620384  0.0620384  )
        14        Cs     tau(  14) = (  0.1879616  0.8120384  0.3120384  )
        15        Cs     tau(  15) = (  0.4379616  0.9379616  0.5620384  )
        16        Cs     tau(  16) = (  0.3120384  0.1879616  0.8120384  )
        17        Cs     tau(  17) = (  0.5620384  0.4379616  0.9379616  )
        18        Cs     tau(  18) = (  0.6879616  0.6879616  0.6879616  )
        19        Cs     tau(  19) = (  0.9379616  0.5620384  0.4379616  )
        20        Cs     tau(  20) = (  0.8120384  0.3120384  0.1879616  )

     number of k points=    10  Marzari-Vanderbilt smearing, width (Ry)=  0.0200
                       cart. coord. in units 2pi/alat
        k(    1) = (   0.0000000   0.0000000   0.0000000), wk =   0.0312500
        k(    2) = (   0.0000000   0.0000000   0.2500000), wk =   0.1875000
        k(    3) = (   0.0000000   0.0000000  -0.5000000), wk =   0.0937500
        k(    4) = (   0.0000000   0.2500000   0.2500000), wk =   0.3750000
        k(    5) = (   0.0000000   0.2500000  -0.5000000), wk =   0.3750000
        k(    6) = (   0.0000000  -0.5000000  -0.5000000), wk =   0.0937500
        k(    7) = (   0.2500000   0.2500000   0.2500000), wk =   0.2500000
        k(    8) = (   0.2500000   0.2500000  -0.5000000), wk =   0.3750000
        k(    9) = (   0.2500000  -0.5000000  -0.5000000), wk =   0.1875000
        k(   10) = (  -0.5000000  -0.5000000  -0.5000000), wk =   0.0312500

                       cryst. coord.
        k(    1) = (   0.0000000   0.0000000   0.0000000), wk =   0.0312500
        k(    2) = (   0.0000000   0.0000000   0.2500000), wk =   0.1875000
        k(    3) = (   0.0000000   0.0000000  -0.5000000), wk =   0.0937500
        k(    4) = (   0.0000000   0.2500000   0.2500000), wk =   0.3750000
        k(    5) = (   0.0000000   0.2500000  -0.5000000), wk =   0.3750000
        k(    6) = (   0.0000000  -0.5000000  -0.5000000), wk =   0.0937500
        k(    7) = (   0.2500000   0.2500000   0.2500000), wk =   0.2500000
        k(    8) = (   0.2500000   0.2500000  -0.5000000), wk =   0.3750000
        k(    9) = (   0.2500000  -0.5000000  -0.5000000), wk =   0.1875000
        k(   10) = (  -0.5000000  -0.5000000  -0.5000000), wk =   0.0312500

     Dense  grid:  1069507 G-vectors     FFT dimensions: ( 128, 128, 128)

     Smooth grid:   378237 G-vectors     FFT dimensions: (  96,  96,  96)

     Dynamical RAM for                 wfc:      38.94 MB

     Dynamical RAM for     wfc (w. buffer):     428.35 MB

     Dynamical RAM for           str. fact:       8.16 MB

     Dynamical RAM for           local pot:       0.00 MB

     Dynamical RAM for          nlocal pot:     129.80 MB

     Dynamical RAM for                qrad:       1.24 MB

     Dynamical RAM for          rho,v,vnew:      48.48 MB

     Dynamical RAM for               rhoin:      16.16 MB

     Dynamical RAM for            rho*nmix:     130.56 MB

     Dynamical RAM for           G-vectors:      32.04 MB

     Dynamical RAM for          h,s,v(r/c):       2.14 MB

     Dynamical RAM for          <psi|beta>:       0.59 MB

     Dynamical RAM for                 psi:      77.88 MB

     Dynamical RAM for                hpsi:      77.88 MB

     Dynamical RAM for                spsi:      77.88 MB

     Dynamical RAM for      wfcinit/wfcrot:      78.15 MB

     Dynamical RAM for           addusdens:    1680.90 MB

     Dynamical RAM for          addusforce:    1995.13 MB

     Dynamical RAM for         addusstress:    1640.10 MB

     Estimated static dynamical RAM per process >     720.56 MB

     Estimated max dynamical RAM per process >       2.78 GB

     Estimated total dynamical RAM >       5.56 GB

     Initial potential from superposition of free atoms

     starting charge     179.2123, renormalised to     180.0000
     Starting wfcs are  260 randomized atomic wfcs

     total cpu time spent up to now is       24.7 secs

     Self-consistent Calculation
[tb_dev] Currently allocated     7.60E+00 Mbytes, locked:    0 /   6
[tb_pin] Currently allocated     0.00E+00 Mbytes, locked:    0 /   0

     iteration #  1     ecut=    30.00 Ry     beta= 0.40
     Davidson diagonalization with overlap

---- Real-time Memory Report at c_bands before calling an iterative solver
          1678 MiB given to the printing process from OS
             0 MiB allocation reported by mallinfo(arena+hblkhd)
         21755 MiB available memory on the node where the printing process lives
     GPU memory used/free/total (MiB): 5571 / 6351 / 11923
------------------
     ethr =  1.00E-02,  avg # of iterations =  2.0

     Threshold (ethr) on eigenvalues was too large:
     Diagonalizing with lowered threshold

     Davidson diagonalization with overlap

---- Real-time Memory Report at c_bands before calling an iterative solver
          1704 MiB given to the printing process from OS
             0 MiB allocation reported by mallinfo(arena+hblkhd)
         21707 MiB available memory on the node where the printing process lives
     GPU memory used/free/total (MiB): 5741 / 6181 / 11923
------------------
     ethr =  1.57E-05,  avg # of iterations =  4.7

     total cpu time spent up to now is       82.6 secs

     total energy              =   -1261.28947624 Ry
     estimated scf accuracy    <       0.03027325 Ry
[tb_dev] Currently allocated     1.53E-04 Mbytes, locked:    0 /   2
[tb_pin] Currently allocated     0.00E+00 Mbytes, locked:    0 /   0

     iteration #  2     ecut=    30.00 Ry     beta= 0.40
     Davidson diagonalization with overlap

---- Real-time Memory Report at c_bands before calling an iterative solver
          1760 MiB given to the printing process from OS
             0 MiB allocation reported by mallinfo(arena+hblkhd)
         21596 MiB available memory on the node where the printing process lives
     GPU memory used/free/total (MiB): 5857 / 6065 / 11923
------------------
     ethr =  1.68E-05,  avg # of iterations =  1.5

     total cpu time spent up to now is      104.6 secs

     total energy              =   -1261.29109997 Ry
     estimated scf accuracy    <       0.00628139 Ry
[tb_dev] Currently allocated     1.53E-04 Mbytes, locked:    0 /   2
[tb_pin] Currently allocated     0.00E+00 Mbytes, locked:    0 /   0

     iteration #  3     ecut=    30.00 Ry     beta= 0.40
     Davidson diagonalization with overlap

---- Real-time Memory Report at c_bands before calling an iterative solver
          1766 MiB given to the printing process from OS
             0 MiB allocation reported by mallinfo(arena+hblkhd)
         21600 MiB available memory on the node where the printing process lives
     GPU memory used/free/total (MiB): 5857 / 6065 / 11923
------------------
     ethr =  3.49E-06,  avg # of iterations =  8.8

     total cpu time spent up to now is      143.2 secs

     total energy              =   -1261.29233154 Ry
     estimated scf accuracy    <       0.00077397 Ry
[tb_dev] Currently allocated     1.53E-04 Mbytes, locked:    0 /   2
[tb_pin] Currently allocated     0.00E+00 Mbytes, locked:    0 /   0

     iteration #  4     ecut=    30.00 Ry     beta= 0.40
     Davidson diagonalization with overlap

---- Real-time Memory Report at c_bands before calling an iterative solver
          1774 MiB given to the printing process from OS
             0 MiB allocation reported by mallinfo(arena+hblkhd)
         21606 MiB available memory on the node where the printing process lives
     GPU memory used/free/total (MiB): 5857 / 6065 / 11923
------------------
     ethr =  4.30E-07,  avg # of iterations =  5.3

     total cpu time spent up to now is      171.9 secs

     total energy              =   -1261.29252387 Ry
     estimated scf accuracy    <       0.00023280 Ry
[tb_dev] Currently allocated     1.53E-04 Mbytes, locked:    0 /   2
[tb_pin] Currently allocated     0.00E+00 Mbytes, locked:    0 /   0

     iteration #  5     ecut=    30.00 Ry     beta= 0.40
     Davidson diagonalization with overlap

---- Real-time Memory Report at c_bands before calling an iterative solver
          1781 MiB given to the printing process from OS
             0 MiB allocation reported by mallinfo(arena+hblkhd)
         21591 MiB available memory on the node where the printing process lives
     GPU memory used/free/total (MiB): 5857 / 6065 / 11923
------------------
     ethr =  1.29E-07,  avg # of iterations =  5.4

     total cpu time spent up to now is      200.4 secs

     total energy              =   -1261.29255289 Ry
     estimated scf accuracy    <       0.00001555 Ry
[tb_dev] Currently allocated     1.53E-04 Mbytes, locked:    0 /   2
[tb_pin] Currently allocated     0.00E+00 Mbytes, locked:    0 /   0

     iteration #  6     ecut=    30.00 Ry     beta= 0.40
     Davidson diagonalization with overlap

---- Real-time Memory Report at c_bands before calling an iterative solver
          1789 MiB given to the printing process from OS
             0 MiB allocation reported by mallinfo(arena+hblkhd)
         21559 MiB available memory on the node where the printing process lives
     GPU memory used/free/total (MiB): 5857 / 6065 / 11923
------------------
     ethr =  8.64E-09,  avg # of iterations =  4.8

     total cpu time spent up to now is      236.0 secs

     total energy              =   -1261.29255968 Ry
     estimated scf accuracy    <       0.00000233 Ry
[tb_dev] Currently allocated     1.53E-04 Mbytes, locked:    0 /   2
[tb_pin] Currently allocated     0.00E+00 Mbytes, locked:    0 /   0

     iteration #  7     ecut=    30.00 Ry     beta= 0.40
     Davidson diagonalization with overlap

---- Real-time Memory Report at c_bands before calling an iterative solver
          1798 MiB given to the printing process from OS
             0 MiB allocation reported by mallinfo(arena+hblkhd)
         21536 MiB available memory on the node where the printing process lives
     GPU memory used/free/total (MiB): 5859 / 6063 / 11923
------------------
     ethr =  1.30E-09,  avg # of iterations =  5.1

     total cpu time spent up to now is      265.5 secs

     total energy              =   -1261.29256036 Ry
     estimated scf accuracy    <       0.00000019 Ry
[tb_dev] Currently allocated     1.53E-04 Mbytes, locked:    0 /   2
[tb_pin] Currently allocated     0.00E+00 Mbytes, locked:    0 /   0

     iteration #  8     ecut=    30.00 Ry     beta= 0.40
     Davidson diagonalization with overlap

---- Real-time Memory Report at c_bands before calling an iterative solver
          1807 MiB given to the printing process from OS
             0 MiB allocation reported by mallinfo(arena+hblkhd)
         21523 MiB available memory on the node where the printing process lives
     GPU memory used/free/total (MiB): 5859 / 6063 / 11923
------------------
     ethr =  1.05E-10,  avg # of iterations =  3.9

     total cpu time spent up to now is      297.3 secs

     total energy              =   -1261.29256047 Ry
     estimated scf accuracy    <       0.00000004 Ry
[tb_dev] Currently allocated     1.53E-04 Mbytes, locked:    0 /   2
[tb_pin] Currently allocated     0.00E+00 Mbytes, locked:    0 /   0

     iteration #  9     ecut=    30.00 Ry     beta= 0.40
     Davidson diagonalization with overlap

---- Real-time Memory Report at c_bands before calling an iterative solver
          1815 MiB given to the printing process from OS
             0 MiB allocation reported by mallinfo(arena+hblkhd)
         21477 MiB available memory on the node where the printing process lives
     GPU memory used/free/total (MiB): 5859 / 6063 / 11923
------------------
     ethr =  2.31E-11,  avg # of iterations =  4.4

     total cpu time spent up to now is      332.6 secs

     End of self-consistent calculation

          k = 0.0000 0.0000 0.0000 ( 47257 PWs)   bands (ev):

   -22.0513 -22.0493 -22.0493 -22.0493 -22.0493 -22.0493 -22.0493 -22.0485
   -22.0485 -22.0485 -22.0483 -22.0483 -22.0445 -22.0428 -22.0428 -22.0428
   -22.0403 -22.0403 -22.0403 -22.0378  -8.9101  -8.9101  -8.9101  -8.9098
    -8.9098  -8.8968  -8.8884  -8.8884  -8.8884  -8.8766  -8.8766  -8.8766
    -8.8747  -8.8735  -8.8735  -8.8735  -8.8660  -8.8660  -8.8660  -8.8641
    -8.8641  -8.8641  -8.8521  -8.8521  -8.8521  -8.8468  -8.8461  -8.8461
    -8.8421  -8.8421  -8.8421  -8.8413  -8.8413  -8.8323  -8.8323  -8.8323
    -8.8318  -8.8318  -8.8318  -8.8300  -8.8300  -8.8300  -8.8283  -8.8283
    -8.8273  -8.8273  -8.8273  -8.8203  -8.8188  -8.8188  -8.8188  -8.8166
    -8.8073  -8.8073  -8.8073  -8.8004  -8.8004  -8.7958  -8.7958  -8.7958
     0.2734   1.2178   1.2178   1.2178   1.3130   1.3130   1.3130   1.9508
     1.9508   1.9508   2.0104   2.0104   2.0104   2.0619   2.0755   2.0755
     2.0848   2.0848   2.0848   2.6682   2.6682   2.6682   2.7096   2.7096
     2.7096   2.7286   2.7712   2.8936

     occupation numbers 
     1.0000   1.0000   1.0000   1.0000   1.0000   1.0000   1.0000   1.0000
     1.0000   1.0000   1.0000   1.0000   1.0000   1.0000   1.0000   1.0000
     1.0000   1.0000   1.0000   1.0000   1.0000   1.0000   1.0000   1.0000
     1.0000   1.0000   1.0000   1.0000   1.0000   1.0000   1.0000   1.0000
     1.0000   1.0000   1.0000   1.0000   1.0000   1.0000   1.0000   1.0000
     1.0000   1.0000   1.0000   1.0000   1.0000   1.0000   1.0000   1.0000
     1.0000   1.0000   1.0000   1.0000   1.0000   1.0000   1.0000   1.0000
     1.0000   1.0000   1.0000   1.0000   1.0000   1.0000   1.0000   1.0000
     1.0000   1.0000   1.0000   1.0000   1.0000   1.0000   1.0000   1.0000
     1.0000   1.0000   1.0000   1.0000   1.0000   1.0000   1.0000   1.0000
     1.0000   1.0139   1.0139   1.0139   1.0361   1.0361   1.0361   0.2301
     0.2301   0.2301   0.1359   0.1359   0.1359   0.0803   0.0691   0.0691
     0.0622   0.0622   0.0622   0.0000   0.0000   0.0000   0.0000   0.0000
     0.0000   0.0000   0.0000   0.0000

          k = 0.0000 0.0000 0.2500 ( 47245 PWs)   bands (ev):

   -22.0511 -22.0499 -22.0493 -22.0493 -22.0493 -22.0491 -22.0490 -22.0486
   -22.0486 -22.0484 -22.0483 -22.0483 -22.0445 -22.0436 -22.0426 -22.0418
   -22.0412 -22.0404 -22.0393 -22.0380  -8.9116  -8.9102  -8.9102  -8.9101
    -8.9047  -8.8942  -8.8901  -8.8857  -8.8852  -8.8836  -8.8830  -8.8772
    -8.8764  -8.8745  -8.8730  -8.8703  -8.8697  -8.8677  -8.8670  -8.8667
    -8.8642  -8.8562  -8.8530  -8.8508  -8.8504  -8.8498  -8.8474  -8.8442
    -8.8438  -8.8428  -8.8415  -8.8385  -8.8380  -8.8352  -8.8338  -8.8328
    -8.8321  -8.8308  -8.8303  -8.8298  -8.8286  -8.8285  -8.8278  -8.8273
    -8.8272  -8.8263  -8.8262  -8.8212  -8.8202  -8.8168  -8.8165  -8.8148
    -8.8084  -8.8076  -8.8073  -8.8014  -8.7997  -8.7996  -8.7968  -8.7963
     0.3414   0.8536   1.2734   1.3107   1.3293   1.3612   1.6861   1.6967
     1.7139   1.7487   1.7888   1.9907   2.0261   2.0400   2.0777   2.2966
     2.3102   2.3254   2.3365   2.5062   2.5742   2.5928   2.6263   2.7066
     2.8261   2.8317   2.8674   2.9175

     occupation numbers 
     1.0000   1.0000   1.0000   1.0000   1.0000   1.0000   1.0000   1.0000
     1.0000   1.0000   1.0000   1.0000   1.0000   1.0000   1.0000   1.0000
     1.0000   1.0000   1.0000   1.0000   1.0000   1.0000   1.0000   1.0000
     1.0000   1.0000   1.0000   1.0000   1.0000   1.0000   1.0000   1.0000
     1.0000   1.0000   1.0000   1.0000   1.0000   1.0000   1.0000   1.0000
     1.0000   1.0000   1.0000   1.0000   1.0000   1.0000   1.0000   1.0000
     1.0000   1.0000   1.0000   1.0000   1.0000   1.0000   1.0000   1.0000
     1.0000   1.0000   1.0000   1.0000   1.0000   1.0000   1.0000   1.0000
     1.0000   1.0000   1.0000   1.0000   1.0000   1.0000   1.0000   1.0000
     1.0000   1.0000   1.0000   1.0000   1.0000   1.0000   1.0000   1.0000
     1.0000   1.0000   1.0252   1.0354   1.0412   1.0519   0.8888   0.8657
     0.8257   0.7381   0.6294   0.1634   0.1166   0.1013   0.0674   0.0031
     0.0024   0.0019   0.0015   0.0000   0.0000   0.0000   0.0000   0.0000
     0.0000   0.0000   0.0000   0.0000

          k = 0.0000 0.0000-0.5000 ( 47316 PWs)   bands (ev):

   -22.0505 -22.0505 -22.0493 -22.0493 -22.0491 -22.0491 -22.0489 -22.0489
   -22.0484 -22.0484 -22.0483 -22.0483 -22.0442 -22.0442 -22.0420 -22.0420
   -22.0410 -22.0410 -22.0385 -22.0385  -8.9106  -8.9106  -8.9106  -8.9106
    -8.8974  -8.8974  -8.8884  -8.8884  -8.8868  -8.8868  -8.8781  -8.8781
    -8.8754  -8.8754  -8.8723  -8.8723  -8.8704  -8.8704  -8.8680  -8.8680
    -8.8616  -8.8616  -8.8532  -8.8532  -8.8495  -8.8495  -8.8470  -8.8470
    -8.8442  -8.8442  -8.8357  -8.8357  -8.8352  -8.8352  -8.8334  -8.8334
    -8.8315  -8.8315  -8.8299  -8.8299  -8.8279  -8.8279  -8.8270  -8.8270
    -8.8256  -8.8256  -8.8189  -8.8189  -8.8186  -8.8186  -8.8174  -8.8174
    -8.8098  -8.8098  -8.8065  -8.8065  -8.7988  -8.7988  -8.7978  -8.7978
     0.5403   0.5403   1.4350   1.4350   1.4406   1.4406   1.4814   1.4814
     1.5596   1.5596   2.0147   2.0147   2.0757   2.0757   2.1639   2.1639
     2.3858   2.3858   2.4196   2.4196   2.6520   2.6520   2.7328   2.7328
     2.7601   2.7601   2.8511   2.8511

     occupation numbers 
     1.0000   1.0000   1.0000   1.0000   1.0000   1.0000   1.0000   1.0000
     1.0000   1.0000   1.0000   1.0000   1.0000   1.0000   1.0000   1.0000
     1.0000   1.0000   1.0000   1.0000   1.0000   1.0000   1.0000   1.0000
     1.0000   1.0000   1.0000   1.0000   1.0000   1.0000   1.0000   1.0000
     1.0000   1.0000   1.0000   1.0000   1.0000   1.0000   1.0000   1.0000
     1.0000   1.0000   1.0000   1.0000   1.0000   1.0000   1.0000   1.0000
     1.0000   1.0000   1.0000   1.0000   1.0000   1.0000   1.0000   1.0000
     1.0000   1.0000   1.0000   1.0000   1.0000   1.0000   1.0000   1.0000
     1.0000   1.0000   1.0000   1.0000   1.0000   1.0000   1.0000   1.0000
     1.0000   1.0000   1.0000   1.0000   1.0000   1.0000   1.0000   1.0000
     1.0000   1.0000   1.0756   1.0756   1.0770   1.0770   1.0831   1.0831
     1.0630   1.0630   0.1304   0.1304   0.0689   0.0689   0.0232   0.0232
     0.0006   0.0006   0.0003   0.0003   0.0000   0.0000   0.0000   0.0000
     0.0000   0.0000   0.0000   0.0000

          k = 0.0000 0.2500 0.2500 ( 47280 PWs)   bands (ev):

   -22.0509 -22.0499 -22.0497 -22.0493 -22.0492 -22.0491 -22.0489 -22.0486
   -22.0485 -22.0484 -22.0483 -22.0483 -22.0444 -22.0438 -22.0427 -22.0417
   -22.0413 -22.0403 -22.0391 -22.0382  -8.9132  -8.9103  -8.9088  -8.9075
    -8.9045  -8.8937  -8.8901  -8.8891  -8.8865  -8.8826  -8.8824  -8.8815
    -8.8776  -8.8751  -8.8742  -8.8696  -8.8695  -8.8670  -8.8669  -8.8649
    -8.8574  -8.8555  -8.8535  -8.8533  -8.8511  -8.8496  -8.8470  -8.8461
    -8.8438  -8.8436  -8.8417  -8.8382  -8.8381  -8.8361  -8.8338  -8.8325
    -8.8319  -8.8303  -8.8299  -8.8296  -8.8289  -8.8276  -8.8271  -8.8271
    -8.8262  -8.8262  -8.8260  -8.8213  -8.8184  -8.8171  -8.8151  -8.8134
    -8.8112  -8.8076  -8.8070  -8.8033  -8.8001  -8.7993  -8.7974  -8.7966
     0.4085   0.8865   0.9455   1.3433   1.3693   1.4014   1.7316   1.7337
     1.7426   1.7869   1.7889   1.8331   2.0364   2.0408   2.0808   2.1414
     2.4121   2.4405   2.4815   2.5411   2.6365   2.6783   2.7075   2.7308
     2.7421   2.7890   2.7944   2.8905

     occupation numbers 
     1.0000   1.0000   1.0000   1.0000   1.0000   1.0000   1.0000   1.0000
     1.0000   1.0000   1.0000   1.0000   1.0000   1.0000   1.0000   1.0000
     1.0000   1.0000   1.0000   1.0000   1.0000   1.0000   1.0000   1.0000
     1.0000   1.0000   1.0000   1.0000   1.0000   1.0000   1.0000   1.0000
     1.0000   1.0000   1.0000   1.0000   1.0000   1.0000   1.0000   1.0000
     1.0000   1.0000   1.0000   1.0000   1.0000   1.0000   1.0000   1.0000
     1.0000   1.0000   1.0000   1.0000   1.0000   1.0000   1.0000   1.0000
     1.0000   1.0000   1.0000   1.0000   1.0000   1.0000   1.0000   1.0000
     1.0000   1.0000   1.0000   1.0000   1.0000   1.0000   1.0000   1.0000
     1.0000   1.0000   1.0000   1.0000   1.0000   1.0000   1.0000   1.0000
     1.0000   1.0001   1.0002   1.0458   1.0547   1.0656   0.7823   0.7769
     0.7541   0.6345   0.6290   0.5071   0.1051   0.1005   0.0651   0.0313
     0.0004   0.0002   0.0001   0.0000   0.0000   0.0000   0.0000   0.0000
     0.0000   0.0000   0.0000   0.0000

          k = 0.0000 0.2500-0.5000 ( 47256 PWs)   bands (ev):

   -22.0504 -22.0504 -22.0495 -22.0495 -22.0492 -22.0492 -22.0488 -22.0488
   -22.0484 -22.0484 -22.0483 -22.0483 -22.0441 -22.0441 -22.0424 -22.0424
   -22.0406 -22.0406 -22.0386 -22.0386  -8.9123  -8.9123  -8.9067  -8.9067
    -8.8999  -8.8999  -8.8900  -8.8900  -8.8856  -8.8856  -8.8815  -8.8815
    -8.8753  -8.8753  -8.8742  -8.8742  -8.8666  -8.8666  -8.8626  -8.8626
    -8.8595  -8.8595  -8.8568  -8.8568  -8.8499  -8.8499  -8.8470  -8.8470
    -8.8427  -8.8427  -8.8368  -8.8368  -8.8361  -8.8361  -8.8333  -8.8333
    -8.8319  -8.8319  -8.8297  -8.8297  -8.8278  -8.8278  -8.8274  -8.8274
    -8.8258  -8.8258  -8.8215  -8.8215  -8.8185  -8.8185  -8.8157  -8.8157
    -8.8096  -8.8096  -8.8056  -8.8056  -8.7991  -8.7991  -8.7978  -8.7978
     0.6041   0.6041   1.0928   1.0928   1.5004   1.5004   1.5558   1.5558
     1.8556   1.8556   1.8828   1.8828   1.9363   1.9363   2.1833   2.1833
     2.5073   2.5074   2.5572   2.5572   2.6248   2.6248   2.7325   2.7325
     2.8090   2.8090   2.8422   2.8426

     occupation numbers 
     1.0000   1.0000   1.0000   1.0000   1.0000   1.0000   1.0000   1.0000
     1.0000   1.0000   1.0000   1.0000   1.0000   1.0000   1.0000   1.0000
     1.0000   1.0000   1.0000   1.0000   1.0000   1.0000   1.0000   1.0000
     1.0000   1.0000   1.0000   1.0000   1.0000   1.0000   1.0000   1.0000
     1.0000   1.0000   1.0000   1.0000   1.0000   1.0000   1.0000   1.0000
     1.0000   1.0000   1.0000   1.0000   1.0000   1.0000   1.0000   1.0000
     1.0000   1.0000   1.0000   1.0000   1.0000   1.0000   1.0000   1.0000
     1.0000   1.0000   1.0000   1.0000   1.0000   1.0000   1.0000   1.0000
     1.0000   1.0000   1.0000   1.0000   1.0000   1.0000   1.0000   1.0000
     1.0000   1.0000   1.0000   1.0000   1.0000   1.0000   1.0000   1.0000
     1.0000   1.0000   1.0026   1.0026   1.0829   1.0829   1.0653   1.0653
     0.4471   0.4471   0.3780   0.3780   0.2581   0.2581   0.0178   0.0178
     0.0000   0.0000   0.0000   0.0000   0.0000   0.0000   0.0000   0.0000
     0.0000   0.0000   0.0000   0.0000

          k = 0.0000-0.5000-0.5000 ( 47272 PWs)   bands (ev):

   -22.0501 -22.0501 -22.0499 -22.0499 -22.0491 -22.0491 -22.0488 -22.0488
   -22.0484 -22.0484 -22.0483 -22.0483 -22.0441 -22.0441 -22.0426 -22.0426
   -22.0403 -22.0403 -22.0387 -22.0387  -8.9124  -8.9124  -8.9049  -8.9049
    -8.9015  -8.9015  -8.8919  -8.8919  -8.8853  -8.8853  -8.8811  -8.8811
    -8.8788  -8.8788  -8.8720  -8.8720  -8.8672  -8.8672  -8.8604  -8.8604
    -8.8600  -8.8600  -8.8537  -8.8537  -8.8486  -8.8486  -8.8438  -8.8438
    -8.8429  -8.8429  -8.8403  -8.8403  -8.8359  -8.8359  -8.8356  -8.8356
    -8.8332  -8.8332  -8.8314  -8.8314  -8.8273  -8.8273  -8.8272  -8.8272
    -8.8255  -8.8255  -8.8220  -8.8220  -8.8189  -8.8189  -8.8141  -8.8141
    -8.8098  -8.8098  -8.8048  -8.8048  -8.7992  -8.7992  -8.7982  -8.7982
     0.7624   0.7624   0.8265   0.8265   1.6375   1.6375   1.6405   1.6405
     1.6709   1.6709   1.7383   1.7383   2.1829   2.1829   2.2229   2.2229
     2.4770   2.4771   2.5091   2.5091   2.7457   2.7457   2.7699   2.7699
     2.7902   2.7903   2.9051   2.9054

     occupation numbers 
     1.0000   1.0000   1.0000   1.0000   1.0000   1.0000   1.0000   1.0000
     1.0000   1.0000   1.0000   1.0000   1.0000   1.0000   1.0000   1.0000
     1.0000   1.0000   1.0000   1.0000   1.0000   1.0000   1.0000   1.0000
     1.0000   1.0000   1.0000   1.0000   1.0000   1.0000   1.0000   1.0000
     1.0000   1.0000   1.0000   1.0000   1.0000   1.0000   1.0000   1.0000
     1.0000   1.0000   1.0000   1.0000   1.0000   1.0000   1.0000   1.0000
     1.0000   1.0000   1.0000   1.0000   1.0000   1.0000   1.0000   1.0000
     1.0000   1.0000   1.0000   1.0000   1.0000   1.0000   1.0000   1.0000
     1.0000   1.0000   1.0000   1.0000   1.0000   1.0000   1.0000   1.0000
     1.0000   1.0000   1.0000   1.0000   1.0000   1.0000   1.0000   1.0000
     1.0000   1.0000   1.0000   1.0000   0.9787   0.9787   0.9740   0.9740
     0.9198   0.9198   0.7653   0.7653   0.0179   0.0179   0.0100   0.0100
     0.0001   0.0001   0.0000   0.0000   0.0000   0.0000   0.0000   0.0000
     0.0000   0.0000   0.0000   0.0000

          k = 0.2500 0.2500 0.2500 ( 47225 PWs)   bands (ev):

   -22.0507 -22.0498 -22.0497 -22.0496 -22.0492 -22.0492 -22.0489 -22.0487
   -22.0485 -22.0484 -22.0483 -22.0483 -22.0443 -22.0438 -22.0429 -22.0421
   -22.0409 -22.0401 -22.0391 -22.0383  -8.9146  -8.9097  -8.9073  -8.9061
    -8.9056  -8.8956  -8.8928  -8.8898  -8.8850  -8.8833  -8.8823  -8.8802
    -8.8776  -8.8752  -8.8728  -8.8699  -8.8686  -8.8672  -8.8650  -8.8601
    -8.8581  -8.8550  -8.8546  -8.8530  -8.8522  -8.8495  -8.8484  -8.8481
    -8.8452  -8.8448  -8.8415  -8.8387  -8.8380  -8.8350  -8.8343  -8.8336
    -8.8320  -8.8318  -8.8310  -8.8303  -8.8275  -8.8272  -8.8262  -8.8262
    -8.8260  -8.8257  -8.8245  -8.8193  -8.8189  -8.8170  -8.8144  -8.8134
    -8.8127  -8.8079  -8.8065  -8.8043  -8.7997  -8.7992  -8.7979  -8.7969
     0.4745   0.9286   0.9737   1.0273   1.3879   1.4293   1.4506   1.7783
     1.7899   1.8318   1.8491   2.0550   2.0620   2.1133   2.1643   2.1732
     2.1821   2.4856   2.5439   2.5572   2.6629   2.7086   2.7266   2.7430
     2.7752   2.8164   2.8307   2.8373

     occupation numbers 
     1.0000   1.0000   1.0000   1.0000   1.0000   1.0000   1.0000   1.0000
     1.0000   1.0000   1.0000   1.0000   1.0000   1.0000   1.0000   1.0000
     1.0000   1.0000   1.0000   1.0000   1.0000   1.0000   1.0000   1.0000
     1.0000   1.0000   1.0000   1.0000   1.0000   1.0000   1.0000   1.0000
     1.0000   1.0000   1.0000   1.0000   1.0000   1.0000   1.0000   1.0000
     1.0000   1.0000   1.0000   1.0000   1.0000   1.0000   1.0000   1.0000
     1.0000   1.0000   1.0000   1.0000   1.0000   1.0000   1.0000   1.0000
     1.0000   1.0000   1.0000   1.0000   1.0000   1.0000   1.0000   1.0000
     1.0000   1.0000   1.0000   1.0000   1.0000   1.0000   1.0000   1.0000
     1.0000   1.0000   1.0000   1.0000   1.0000   1.0000   1.0000   1.0000
     1.0000   1.0001   1.0003   1.0009   1.0611   1.0741   1.0792   0.6582
     0.6263   0.5106   0.4641   0.0865   0.0802   0.0444   0.0231   0.0205
     0.0181   0.0001   0.0000   0.0000   0.0000   0.0000   0.0000   0.0000
     0.0000   0.0000   0.0000   0.0000

          k = 0.2500 0.2500-0.5000 ( 47254 PWs)   bands (ev):

   -22.0503 -22.0503 -22.0496 -22.0496 -22.0492 -22.0492 -22.0488 -22.0488
   -22.0484 -22.0484 -22.0483 -22.0483 -22.0441 -22.0441 -22.0427 -22.0427
   -22.0403 -22.0403 -22.0387 -22.0387  -8.9131  -8.9131  -8.9060  -8.9060
    -8.9013  -8.9013  -8.8920  -8.8920  -8.8849  -8.8849  -8.8807  -8.8807
    -8.8740  -8.8740  -8.8701  -8.8701  -8.8665  -8.8665  -8.8625  -8.8625
    -8.8594  -8.8594  -8.8569  -8.8569  -8.8498  -8.8498  -8.8467  -8.8467
    -8.8444  -8.8444  -8.8390  -8.8390  -8.8359  -8.8359  -8.8349  -8.8349
    -8.8331  -8.8331  -8.8317  -8.8317  -8.8272  -8.8272  -8.8259  -8.8259
    -8.8250  -8.8250  -8.8223  -8.8223  -8.8174  -8.8174  -8.8144  -8.8144
    -8.8095  -8.8095  -8.8055  -8.8055  -8.7992  -8.7992  -8.7978  -8.7978
     0.6667   0.6667   1.1139   1.1139   1.1902   1.1902   1.5704   1.5704
     1.9229   1.9229   1.9598   1.9598   2.1313   2.1313   2.2105   2.2105
     2.3861   2.3861   2.5449   2.5449   2.7134   2.7135   2.7521   2.7525
     2.7961   2.7962   2.8278   2.8281

     occupation numbers 
     1.0000   1.0000   1.0000   1.0000   1.0000   1.0000   1.0000   1.0000
     1.0000   1.0000   1.0000   1.0000   1.0000   1.0000   1.0000   1.0000
     1.0000   1.0000   1.0000   1.0000   1.0000   1.0000   1.0000   1.0000
     1.0000   1.0000   1.0000   1.0000   1.0000   1.0000   1.0000   1.0000
     1.0000   1.0000   1.0000   1.0000   1.0000   1.0000   1.0000   1.0000
     1.0000   1.0000   1.0000   1.0000   1.0000   1.0000   1.0000   1.0000
     1.0000   1.0000   1.0000   1.0000   1.0000   1.0000   1.0000   1.0000
     1.0000   1.0000   1.0000   1.0000   1.0000   1.0000   1.0000   1.0000
     1.0000   1.0000   1.0000   1.0000   1.0000   1.0000   1.0000   1.0000
     1.0000   1.0000   1.0000   1.0000   1.0000   1.0000   1.0000   1.0000
     1.0000   1.0000   1.0036   1.0036   1.0100   1.0100   1.0557   1.0557
     0.2858   0.2858   0.2137   0.2137   0.0355   0.0355   0.0120   0.0120
     0.0006   0.0006   0.0000   0.0000   0.0000   0.0000   0.0000   0.0000
     0.0000   0.0000   0.0000   0.0000

          k = 0.2500-0.5000-0.5000 ( 47200 PWs)   bands (ev):

   -22.0500 -22.0500 -22.0498 -22.0498 -22.0492 -22.0492 -22.0489 -22.0489
   -22.0483 -22.0483 -22.0483 -22.0483 -22.0439 -22.0439 -22.0430 -22.0430
   -22.0399 -22.0399 -22.0389 -22.0389  -8.9130  -8.9130  -8.9083  -8.9083
    -8.8997  -8.8997  -8.8944  -8.8944  -8.8842  -8.8842  -8.8765  -8.8765
    -8.8756  -8.8756  -8.8705  -8.8705  -8.8659  -8.8659  -8.8630  -8.8630
    -8.8547  -8.8547  -8.8525  -8.8525  -8.8525  -8.8525  -8.8473  -8.8473
    -8.8463  -8.8463  -8.8423  -8.8423  -8.8384  -8.8384  -8.8361  -8.8361
    -8.8339  -8.8339  -8.8326  -8.8326  -8.8258  -8.8258  -8.8258  -8.8258
    -8.8242  -8.8242  -8.8223  -8.8223  -8.8158  -8.8158  -8.8138  -8.8138
    -8.8093  -8.8093  -8.8058  -8.8058  -8.7989  -8.7989  -8.7981  -8.7981
     0.8229   0.8229   0.8833   0.8833   1.2990   1.2990   1.3397   1.3397
     2.0413   2.0413   2.0581   2.0581   2.2015   2.2015   2.2745   2.2745
     2.4028   2.4028   2.5047   2.5047   2.7128   2.7128   2.7239   2.7239
     2.7547   2.7548   2.7644   2.7645

     occupation numbers 
     1.0000   1.0000   1.0000   1.0000   1.0000   1.0000   1.0000   1.0000
     1.0000   1.0000   1.0000   1.0000   1.0000   1.0000   1.0000   1.0000
     1.0000   1.0000   1.0000   1.0000   1.0000   1.0000   1.0000   1.0000
     1.0000   1.0000   1.0000   1.0000   1.0000   1.0000   1.0000   1.0000
     1.0000   1.0000   1.0000   1.0000   1.0000   1.0000   1.0000   1.0000
     1.0000   1.0000   1.0000   1.0000   1.0000   1.0000   1.0000   1.0000
     1.0000   1.0000   1.0000   1.0000   1.0000   1.0000   1.0000   1.0000
     1.0000   1.0000   1.0000   1.0000   1.0000   1.0000   1.0000   1.0000
     1.0000   1.0000   1.0000   1.0000   1.0000   1.0000   1.0000   1.0000
     1.0000   1.0000   1.0000   1.0000   1.0000   1.0000   1.0000   1.0000
     1.0000   1.0000   1.0001   1.0001   1.0320   1.0320   1.0446   1.0446
     0.1000   0.1000   0.0837   0.0837   0.0137   0.0137   0.0045   0.0045
     0.0004   0.0004   0.0001   0.0001   0.0000   0.0000   0.0000   0.0000
     0.0000   0.0000   0.0000   0.0000

          k =-0.5000-0.5000-0.5000 ( 47216 PWs)   bands (ev):

   -22.0498 -22.0498 -22.0498 -22.0498 -22.0492 -22.0492 -22.0492 -22.0492
   -22.0483 -22.0483 -22.0483 -22.0483 -22.0435 -22.0435 -22.0435 -22.0435
   -22.0393 -22.0393 -22.0393 -22.0393  -8.9120  -8.9120  -8.9120  -8.9120
    -8.8979  -8.8979  -8.8979  -8.8979  -8.8787  -8.8787  -8.8787  -8.8787
    -8.8700  -8.8700  -8.8700  -8.8700  -8.8609  -8.8609  -8.8609  -8.8609
    -8.8558  -8.8558  -8.8558  -8.8558  -8.8512  -8.8512  -8.8512  -8.8512
    -8.8462  -8.8462  -8.8462  -8.8462  -8.8413  -8.8413  -8.8413  -8.8413
    -8.8327  -8.8327  -8.8327  -8.8327  -8.8246  -8.8246  -8.8246  -8.8246
    -8.8226  -8.8226  -8.8226  -8.8226  -8.8129  -8.8129  -8.8129  -8.8129
    -8.8084  -8.8084  -8.8084  -8.8084  -8.7983  -8.7983  -8.7983  -8.7983
     0.9786   0.9786   0.9786   0.9786   1.0929   1.0929   1.0929   1.0929
     2.2689   2.2689   2.2689   2.2689   2.2875   2.2875   2.2875   2.2875
     2.4137   2.4137   2.4137   2.4137   2.6714   2.6714   2.6714   2.6715
     2.6967   2.6967   2.6968   2.6968

     occupation numbers 
     1.0000   1.0000   1.0000   1.0000   1.0000   1.0000   1.0000   1.0000
     1.0000   1.0000   1.0000   1.0000   1.0000   1.0000   1.0000   1.0000
     1.0000   1.0000   1.0000   1.0000   1.0000   1.0000   1.0000   1.0000
     1.0000   1.0000   1.0000   1.0000   1.0000   1.0000   1.0000   1.0000
     1.0000   1.0000   1.0000   1.0000   1.0000   1.0000   1.0000   1.0000
     1.0000   1.0000   1.0000   1.0000   1.0000   1.0000   1.0000   1.0000
     1.0000   1.0000   1.0000   1.0000   1.0000   1.0000   1.0000   1.0000
     1.0000   1.0000   1.0000   1.0000   1.0000   1.0000   1.0000   1.0000
     1.0000   1.0000   1.0000   1.0000   1.0000   1.0000   1.0000   1.0000
     1.0000   1.0000   1.0000   1.0000   1.0000   1.0000   1.0000   1.0000
     1.0004   1.0004   1.0004   1.0004   1.0026   1.0026   1.0026   1.0026
     0.0049   0.0049   0.0049   0.0049   0.0036   0.0036   0.0036   0.0036
     0.0004   0.0004   0.0004   0.0004   0.0000   0.0000   0.0000   0.0000
     0.0000   0.0000   0.0000   0.0000

     the Fermi energy is     1.8736 ev

!    total energy              =   -1261.29256050 Ry
     estimated scf accuracy    <          1.6E-09 Ry
     smearing contrib. (-TS)   =      -0.01257725 Ry
     internal energy E=F+TS    =   -1261.27998325 Ry

     The total energy is F=E-TS. E is the sum of the following terms:
     one-electron contribution =    -381.32545740 Ry
     hartree contribution      =     213.45079481 Ry
     xc contribution           =    -602.58191007 Ry
     ewald contribution        =    -490.82341059 Ry

     convergence has been achieved in   9 iterations

     Forces acting on atoms (cartesian axes, Ry/au):

     atom    1 type  1   force =     0.00023492   -0.00000000   -0.00023492
     atom    2 type  1   force =    -0.00000000    0.00023492   -0.00023492
     atom    3 type  1   force =    -0.00023492   -0.00000000   -0.00023492
     atom    4 type  1   force =     0.00000000   -0.00023492   -0.00023492
     atom    5 type  1   force =     0.00023492    0.00000000    0.00023492
     atom    6 type  1   force =    -0.00000000   -0.00023492    0.00023492
     atom    7 type  1   force =    -0.00023492    0.00000000    0.00023492
     atom    8 type  1   force =     0.00000000    0.00023492    0.00023492
     atom    9 type  1   force =    -0.00023492    0.00023492    0.00000000
     atom   10 type  1   force =    -0.00023492   -0.00023492   -0.00000000
     atom   11 type  1   force =     0.00023492    0.00023492   -0.00000000
     atom   12 type  1   force =     0.00023492   -0.00023492    0.00000000
     atom   13 type  1   force =     0.00006680    0.00006680    0.00006680
     atom   14 type  1   force =    -0.00006680    0.00006680    0.00006680
     atom   15 type  1   force =    -0.00006680   -0.00006680    0.00006680
     atom   16 type  1   force =     0.00006680   -0.00006680    0.00006680
     atom   17 type  1   force =     0.00006680   -0.00006680   -0.00006680
     atom   18 type  1   force =    -0.00006680   -0.00006680   -0.00006680
     atom   19 type  1   force =    -0.00006680    0.00006680   -0.00006680
     atom   20 type  1   force =     0.00006680    0.00006680   -0.00006680
     The non-local contrib.  to forces
     atom    1 type  1   force =    -0.00047583   -0.00000000    0.00047583
     atom    2 type  1   force =    -0.00000000   -0.00047583    0.00047583
     atom    3 type  1   force =     0.00047583   -0.00000000    0.00047583
     atom    4 type  1   force =    -0.00000000    0.00047583    0.00047583
     atom    5 type  1   force =    -0.00047583    0.00000000   -0.00047583
     atom    6 type  1   force =    -0.00000000    0.00047583   -0.00047583
     atom    7 type  1   force =     0.00047583    0.00000000   -0.00047583
     atom    8 type  1   force =    -0.00000000   -0.00047583   -0.00047583
     atom    9 type  1   force =     0.00047583   -0.00047583    0.00000000
     atom   10 type  1   force =     0.00047583    0.00047583    0.00000000
     atom   11 type  1   force =    -0.00047583   -0.00047583   -0.00000000
     atom   12 type  1   force =    -0.00047583    0.00047583    0.00000000
     atom   13 type  1   force =     0.00071716    0.00071716    0.00071716
     atom   14 type  1   force =    -0.00071716    0.00071716    0.00071716
     atom   15 type  1   force =    -0.00071716   -0.00071716    0.00071716
     atom   16 type  1   force =     0.00071716   -0.00071716    0.00071716
     atom   17 type  1   force =     0.00071716   -0.00071716   -0.00071716
     atom   18 type  1   force =    -0.00071716   -0.00071716   -0.00071716
     atom   19 type  1   force =    -0.00071716    0.00071716   -0.00071716
     atom   20 type  1   force =     0.00071716    0.00071716   -0.00071716
     The ionic contribution  to forces
     atom    1 type  1   force =    -0.15400498   -0.00000000    0.15400498
     atom    2 type  1   force =    -0.00000000   -0.15400498    0.15400498
     atom    3 type  1   force =     0.15400498   -0.00000000    0.15400498
     atom    4 type  1   force =    -0.00000000    0.15400498    0.15400498
     atom    5 type  1   force =    -0.15400498    0.00000000   -0.15400498
     atom    6 type  1   force =    -0.00000000    0.15400498   -0.15400498
     atom    7 type  1   force =     0.15400498   -0.00000000   -0.15400498
     atom    8 type  1   force =    -0.00000000   -0.15400498   -0.15400498
     atom    9 type  1   force =     0.15400498   -0.15400498   -0.00000000
     atom   10 type  1   force =     0.15400498    0.15400498   -0.00000000
     atom   11 type  1   force =    -0.15400498   -0.15400498    0.00000000
     atom   12 type  1   force =    -0.15400498    0.15400498    0.00000000
     atom   13 type  1   force =    -0.11943379   -0.11943379   -0.11943379
     atom   14 type  1   force =     0.11943379   -0.11943379   -0.11943379
     atom   15 type  1   force =     0.11943379    0.11943379   -0.11943379
     atom   16 type  1   force =    -0.11943379    0.11943379   -0.11943379
     atom   17 type  1   force =    -0.11943379    0.11943379    0.11943379
     atom   18 type  1   force =     0.11943379    0.11943379    0.11943379
     atom   19 type  1   force =     0.11943379   -0.11943379    0.11943379
     atom   20 type  1   force =    -0.11943379   -0.11943379    0.11943379
     The local contribution  to forces
     atom    1 type  1   force =     0.15462127    0.00000000   -0.15462127
     atom    2 type  1   force =    -0.00000000    0.15462127   -0.15462127
     atom    3 type  1   force =    -0.15462127    0.00000000   -0.15462127
     atom    4 type  1   force =     0.00000000   -0.15462127   -0.15462127
     atom    5 type  1   force =     0.15462127    0.00000000    0.15462127
     atom    6 type  1   force =     0.00000000   -0.15462127    0.15462127
     atom    7 type  1   force =    -0.15462127    0.00000000    0.15462127
     atom    8 type  1   force =     0.00000000    0.15462127    0.15462127
     atom    9 type  1   force =    -0.15462127    0.15462127    0.00000000
     atom   10 type  1   force =    -0.15462127   -0.15462127    0.00000000
     atom   11 type  1   force =     0.15462127    0.15462127    0.00000000
     atom   12 type  1   force =     0.15462127   -0.15462127    0.00000000
     atom   13 type  1   force =     0.11883564    0.11883564    0.11883564
     atom   14 type  1   force =    -0.11883564    0.11883564    0.11883564
     atom   15 type  1   force =    -0.11883564   -0.11883564    0.11883564
     atom   16 type  1   force =     0.11883564   -0.11883564    0.11883564
     atom   17 type  1   force =     0.11883564   -0.11883564   -0.11883564
     atom   18 type  1   force =    -0.11883564   -0.11883564   -0.11883564
     atom   19 type  1   force =    -0.11883564    0.11883564   -0.11883564
     atom   20 type  1   force =     0.11883564    0.11883564   -0.11883564
     The core correction contribution to forces
     atom    1 type  1   force =     0.00011376    0.00000000   -0.00011376
     atom    2 type  1   force =    -0.00000000    0.00011376   -0.00011376
     atom    3 type  1   force =    -0.00011376    0.00000000   -0.00011376
     atom    4 type  1   force =     0.00000000   -0.00011376   -0.00011376
     atom    5 type  1   force =     0.00011376   -0.00000000    0.00011376
     atom    6 type  1   force =     0.00000000   -0.00011376    0.00011376
     atom    7 type  1   force =    -0.00011376   -0.00000000    0.00011376
     atom    8 type  1   force =    -0.00000000    0.00011376    0.00011376
     atom    9 type  1   force =    -0.00011376    0.00011376    0.00000000
     atom   10 type  1   force =    -0.00011376   -0.00011376    0.00000000
     atom   11 type  1   force =     0.00011376    0.00011376   -0.00000000
     atom   12 type  1   force =     0.00011376   -0.00011376   -0.00000000
     atom   13 type  1   force =    -0.00004148   -0.00004148   -0.00004148
     atom   14 type  1   force =     0.00004148   -0.00004148   -0.00004148
     atom   15 type  1   force =     0.00004148    0.00004148   -0.00004148
     atom   16 type  1   force =    -0.00004148    0.00004148   -0.00004148
     atom   17 type  1   force =    -0.00004148    0.00004148    0.00004148
     atom   18 type  1   force =     0.00004148    0.00004148    0.00004148
     atom   19 type  1   force =     0.00004148   -0.00004148    0.00004148
     atom   20 type  1   force =    -0.00004148   -0.00004148    0.00004148
     The Hubbard contrib.    to forces
     atom    1 type  1   force =     0.00000000    0.00000000    0.00000000
     atom    2 type  1   force =     0.00000000    0.00000000    0.00000000
     atom    3 type  1   force =     0.00000000    0.00000000    0.00000000
     atom    4 type  1   force =     0.00000000    0.00000000    0.00000000
     atom    5 type  1   force =     0.00000000    0.00000000    0.00000000
     atom    6 type  1   force =     0.00000000    0.00000000    0.00000000
     atom    7 type  1   force =     0.00000000    0.00000000    0.00000000
     atom    8 type  1   force =     0.00000000    0.00000000    0.00000000
     atom    9 type  1   force =     0.00000000    0.00000000    0.00000000
     atom   10 type  1   force =     0.00000000    0.00000000    0.00000000
     atom   11 type  1   force =     0.00000000    0.00000000    0.00000000
     atom   12 type  1   force =     0.00000000    0.00000000    0.00000000
     atom   13 type  1   force =     0.00000000    0.00000000    0.00000000
     atom   14 type  1   force =     0.00000000    0.00000000    0.00000000
     atom   15 type  1   force =     0.00000000    0.00000000    0.00000000
     atom   16 type  1   force =     0.00000000    0.00000000    0.00000000
     atom   17 type  1   force =     0.00000000    0.00000000    0.00000000
     atom   18 type  1   force =     0.00000000    0.00000000    0.00000000
     atom   19 type  1   force =     0.00000000    0.00000000    0.00000000
     atom   20 type  1   force =     0.00000000    0.00000000    0.00000000
     The SCF correction term to forces
     atom    1 type  1   force =    -0.00001930    0.00000000    0.00001930
     atom    2 type  1   force =     0.00000000   -0.00001930    0.00001930
     atom    3 type  1   force =     0.00001930   -0.00000000    0.00001930
     atom    4 type  1   force =     0.00000000    0.00001930    0.00001930
     atom    5 type  1   force =    -0.00001930    0.00000000   -0.00001930
     atom    6 type  1   force =     0.00000000    0.00001930   -0.00001930
     atom    7 type  1   force =     0.00001930   -0.00000000   -0.00001930
     atom    8 type  1   force =     0.00000000   -0.00001930   -0.00001930
     atom    9 type  1   force =     0.00001930   -0.00001930    0.00000000
     atom   10 type  1   force =     0.00001930    0.00001930    0.00000000
     atom   11 type  1   force =    -0.00001930   -0.00001930    0.00000000
     atom   12 type  1   force =    -0.00001930    0.00001930    0.00000000
     atom   13 type  1   force =    -0.00001073   -0.00001073   -0.00001073
     atom   14 type  1   force =     0.00001073   -0.00001073   -0.00001073
     atom   15 type  1   force =     0.00001073    0.00001073   -0.00001073
     atom   16 type  1   force =    -0.00001073    0.00001073   -0.00001073
     atom   17 type  1   force =    -0.00001073    0.00001073    0.00001073
     atom   18 type  1   force =     0.00001073    0.00001073    0.00001073
     atom   19 type  1   force =     0.00001073   -0.00001073    0.00001073
     atom   20 type  1   force =    -0.00001073   -0.00001073    0.00001073

     Total force =     0.001197     Total SCF correction =     0.000108


     Computing stress (Cartesian axis) and pressure

          total   stress  (Ry/bohr**3)                   (kbar)     P=       -1.02
  -0.00000697   0.00000000   0.00000000           -1.02        0.00        0.00
   0.00000000  -0.00000697   0.00000000            0.00       -1.02        0.00
   0.00000000   0.00000000  -0.00000697            0.00        0.00       -1.02

     kinetic stress (kbar)   1319.30      0.00      0.00
                                0.00   1319.30      0.00
                                0.00      0.00   1319.30

     local   stress (kbar)  -2402.54      0.00      0.00
                                0.00  -2402.54      0.00
                                0.00      0.00  -2402.54

     nonloc. stress (kbar)   2482.58      0.00      0.00
                                0.00   2482.58      0.00
                                0.00      0.00   2482.58

     hartree stress (kbar)    614.51     -0.00     -0.00
                               -0.00    614.51      0.00
                               -0.00      0.00    614.51

     exc-cor stress (kbar)   3536.87      0.00      0.00
                                0.00   3536.87      0.00
                                0.00      0.00   3536.87

     corecor stress (kbar)  -4138.68     -0.00     -0.00
                               -0.00  -4138.68      0.00
                               -0.00      0.00  -4138.68

     ewald   stress (kbar)  -1413.06      0.00      0.00
                                0.00  -1413.06      0.00
                                0.00      0.00  -1413.06

     hubbard stress (kbar)      0.00      0.00      0.00
                                0.00      0.00      0.00
                                0.00      0.00      0.00

     DFT-D   stress (kbar)      0.00      0.00      0.00
                                0.00      0.00      0.00
                                0.00      0.00      0.00

     XDM     stress (kbar)      0.00      0.00      0.00
                                0.00      0.00      0.00
                                0.00      0.00      0.00

     dft-nl  stress (kbar)      0.00      0.00      0.00
                                0.00      0.00      0.00
                                0.00      0.00      0.00

     TS-vdW  stress (kbar)      0.00      0.00      0.00
                                0.00      0.00      0.00
                                0.00      0.00      0.00

     MDB     stress (kbar)      0.00      0.00      0.00
                                0.00      0.00      0.00
                                0.00      0.00      0.00

     3D-RISM stress (kbar)      0.00      0.00      0.00
                                0.00      0.00      0.00
                                0.00      0.00      0.00


     Writing all to output data dir ../out/aiida.save/ :
     XML data file, charge density, pseudopotentials, collected wavefunctions
 
     init_run     :     24.13s CPU     24.54s WALL (       1 calls)
     electrons    :    307.72s CPU    307.85s WALL (       1 calls)
     forces       :      6.72s CPU      6.72s WALL (       1 calls)
     stress       :     21.67s CPU     21.67s WALL (       1 calls)

     Called by init_run:
     wfcinit      :     21.93s CPU     22.17s WALL (       1 calls)
     wfcinit:atom :      0.47s CPU      0.47s WALL (      10 calls)
     wfcinit:wfcr :     21.24s CPU     21.37s WALL (      10 calls)
     potinit      :      0.76s CPU      0.79s WALL (       1 calls)
     hinit0       :      0.33s CPU      0.37s WALL (       1 calls)

     Called by electrons:
     c_bands      :    264.92s CPU    264.99s WALL (      10 calls)
     sum_band     :     35.64s CPU     35.65s WALL (      10 calls)
     v_of_rho     :      1.00s CPU      1.03s WALL (      10 calls)
     v_h          :      0.17s CPU      0.18s WALL (      10 calls)
     v_xc         :      1.00s CPU      1.02s WALL (      12 calls)
     newd         :      5.99s CPU      6.00s WALL (      10 calls)
                                        6.00s GPU  (      10 calls)
     mix_rho      :      0.46s CPU      0.48s WALL (      10 calls)

     Called by c_bands:
     init_us_2    :      2.81s CPU      2.81s WALL (     230 calls)
     cegterg      :    257.09s CPU    257.17s WALL (     100 calls)

     Called by sum_band:
     sum_band:wei :      0.01s CPU      0.01s WALL (      10 calls)
     sum_band:loo :     30.34s CPU     30.34s WALL (      10 calls)
     sum_band:buf :      1.87s CPU      1.86s WALL (     100 calls)
     sum_band:ini :      1.22s CPU      1.22s WALL (     100 calls)
     sum_band:cal :     11.84s CPU     11.85s WALL (     100 calls)
     sum_band:bec :      1.17s CPU      1.17s WALL (     100 calls)
     addusdens    :      4.71s CPU      4.72s WALL (      10 calls)
                                        4.71s GPU  (      10 calls)
     addusd:skk   :      0.09s CPU      0.09s WALL (      10 calls)
                                        0.09s GPU  (      10 calls)

     Called by *egterg:
     cdiaghg      :      6.24s CPU      6.30s WALL (     549 calls)
                                        6.24s GPU  (     549 calls)
     cegterg:over :     47.52s CPU     47.53s WALL (     459 calls)
     cegterg:upda :     16.42s CPU     16.42s WALL (     459 calls)
     cegterg:last :     27.31s CPU     27.30s WALL (     224 calls)
     h_psi        :    149.35s CPU    149.82s WALL (     569 calls)
                                      149.59s GPU  (     569 calls)
     s_psi        :      4.51s CPU      4.51s WALL (     569 calls)
     g_psi        :      0.00s CPU      0.60s WALL (     459 calls)
                                        0.28s GPU  (     459 calls)

     Called by h_psi:
     h_psi:calbec :     39.77s CPU     39.86s WALL (     569 calls)
                                       38.99s GPU  (     569 calls)
     vloc_psi     :     74.36s CPU     74.58s WALL (     569 calls)
                                       74.46s GPU  (     569 calls)
     add_vuspsi   :      2.66s CPU     34.16s WALL (     569 calls)
                                       34.09s GPU  (     569 calls)

     General routines
     calbec       :     72.70s CPU     72.73s WALL (     839 calls)
     fft          :      0.91s CPU      1.15s WALL (     154 calls)
                                        0.57s GPU  (     144 calls)
     ffts         :      0.35s CPU      0.36s WALL (      20 calls)
                                        0.01s GPU  (      10 calls)
     fftw         :     53.69s CPU     72.71s WALL (    5090 calls)
                                       67.18s GPU  (    5090 calls)
     interpolate  :      0.90s CPU      0.91s WALL (      10 calls)
 
     Parallel routines
 
     PWSCF        :   6m 0.76s CPU   6m 1.66s WALL

 
   This run was terminated on:  21:54:24  16May2025            

=------------------------------------------------------------------------------=
   JOB DONE.
=------------------------------------------------------------------------------=
