
     Program PWSCF v.7.4 starts on 28Apr2025 at 13:51:31 

     This program is part of the open-source Quantum ESPRESSO suite
     for quantum simulation of materials; please cite
         "P. Giannozzi et al., J. Phys.:Condens. Matter 21 395502 (2009);
         "P. Giannozzi et al., J. Phys.:Condens. Matter 29 465901 (2017);
         "P. Giannozzi et al., J. Chem. Phys. 152 154105 (2020);
          URL http://www.quantum-espresso.org", 
     in publications or presentations arising from this work. More details at
     http://www.quantum-espresso.org/quote

     Parallel version (MPI), running on     4 processors

     MPI processes distributed on     1 nodes
     17067 MiB available memory on the printing compute node when the environment starts
 
     Waiting for input...
     Reading input from standard input
Warning: card &CELL ignored
Warning: card CELL_DYNAMICS = 'BFGS' ignored
Warning: card PRESS_CONV_THR= 0.05 ignored
Warning: card CELL_DOFREE = 'ALL' ignored
Warning: card / ignored

     Current dimensions of program PWSCF are:
     Max number of different atomic species (ntypx) = 10
     Max number of k-points (npk) =  40000
     Max angular momentum in pseudopotentials (lmaxx) =  4
     file Pb.pbe-dn-kjpaw_psl.0.2.2.UPF: wavefunction(s)  6S renormalized
     Found identity + (  0.5000  0.0000  0.5000) symmetry
     This is a supercell, fractional translations are disabled
 
     R & G space division:  proc/nbgrp/npool/nimage =       4
     Subspace diagonalization in iterative solution of the eigenvalue problem:
     a serial algorithm will be used

 
     Parallelization info
     --------------------
     sticks:   dense  smooth     PW     G-vecs:    dense   smooth      PW
     Min        3608    1802    483               326316   115428   16021
     Max        3609    1803    484               326319   115431   16022
     Sum       14433    7209   1933              1305271   461719   64085
 
     Using Slab Decomposition
 


     bravais-lattice index     =            1
     lattice parameter (alat)  =      23.8142  a.u.
     unit-cell volume          =   13505.3394 (a.u.)^3
     number of atoms/cell      =           40
     number of atomic types    =            3
     number of electrons       =       352.00
     number of Kohn-Sham states=          184
     kinetic-energy cutoff     =      40.0000  Ry
     charge density cutoff     =     320.0000  Ry
     scf convergence threshold =      1.4E-09
     mixing beta               =       0.4000
     number of iterations used =            8  plain     mixing
     Exchange-correlation= SLA  PW   PBX  PBC
                           (   1   4   3   4   0   0   0)

     GPU acceleration is ACTIVE.  1 visible GPUs per MPI rank
     GPU-aware MPI enabled

     Message from routine print_cuda_info:
     High GPU oversubscription detected. Are you sure this is what you want?

     GPU used by master process:

        Device Number: 0
        Device name: NVIDIA RTX A2000 12GB
        Compute capability : 86
        Ratio of single to double precision performance  : 32
        Memory Clock Rate (KHz): 6001000
        Memory Bus Width (bits): 192
        Peak Memory Bandwidth (GB/s): 288.05

     celldm(1)=  23.814155  celldm(2)=   0.000000  celldm(3)=   0.000000
     celldm(4)=   0.000000  celldm(5)=   0.000000  celldm(6)=   0.000000

     crystal axes: (cart. coord. in units of alat)
               a(1) = (   1.000000   0.000000   0.000000 )  
               a(2) = (   0.000000   1.000000   0.000000 )  
               a(3) = (   0.000000   0.000000   1.000000 )  

     reciprocal axes: (cart. coord. in units 2 pi/alat)
               b(1) = (  1.000000  0.000000  0.000000 )  
               b(2) = (  0.000000  1.000000  0.000000 )  
               b(3) = (  0.000000  0.000000  1.000000 )  


     PseudoPot. # 1 for Cs read from file:
     ../pseudo/Cs_pbe_v1.uspp.F.UPF
     MD5 check sum: 3476d69cb178dfad3ffaa59df4e07ca4
     Pseudo is Ultrasoft + core correction, Zval =  9.0
     Generated by new atomic code, or converted to UPF format
     Using radial grid of  905 points,  6 beta functions with: 
                l(1) =   0
                l(2) =   0
                l(3) =   1
                l(4) =   1
                l(5) =   2
                l(6) =   2
     Q(r) pseudized with  6 coefficients,  rinner =    1.500   1.500   1.500
                                                       1.500   1.500

     PseudoPot. # 2 for I  read from file:
     ../pseudo/I.pbe-n-kjpaw_psl.0.2.UPF
     MD5 check sum: d4ef18d9c8f18dc85e5843bca1e50dc0
     Pseudo is Projector augmented-wave + core cor, Zval =  7.0
     Generated using "atomic" code by A. Dal Corso  v.5.0.99 svn rev. 10869
     Shape of augmentation charge: PSQ
     Using radial grid of 1247 points,  4 beta functions with: 
                l(1) =   0
                l(2) =   0
                l(3) =   1
                l(4) =   1
     Q(r) pseudized with 0 coefficients 


     PseudoPot. # 3 for Pb read from file:
     ../pseudo/Pb.pbe-dn-kjpaw_psl.0.2.2.UPF
     MD5 check sum: 9d431e6316058b74ade52399a6cf67da
     Pseudo is Projector augmented-wave + core cor, Zval = 14.0
     Generated using "atomic" code by A. Dal Corso  v.5.0.99 svn rev. 10869
     Shape of augmentation charge: PSQ
     Using radial grid of 1281 points,  6 beta functions with: 
                l(1) =   0
                l(2) =   0
                l(3) =   1
                l(4) =   1
                l(5) =   2
                l(6) =   2
     Q(r) pseudized with 0 coefficients 


     atomic species   valence    mass     pseudopotential
     Cs                9.00   132.90545     Cs( 1.00)
     I                 7.00   126.90447     I ( 1.00)
     Pb               14.00   207.20000     Pb( 1.00)

     48 Sym. Ops., with inversion, found


                                    s                        frac. trans.

      isym =  1     identity                                     

 cryst.   s( 1) = (     1          0          0      )
                  (     0          1          0      )
                  (     0          0          1      )

 cart.    s( 1) = (  1.0000000  0.0000000  0.0000000 )
                  (  0.0000000  1.0000000  0.0000000 )
                  (  0.0000000  0.0000000  1.0000000 )


      isym =  2     180 deg rotation - cart. axis [0,0,1]        

 cryst.   s( 2) = (    -1          0          0      )
                  (     0         -1          0      )
                  (     0          0          1      )

 cart.    s( 2) = ( -1.0000000  0.0000000  0.0000000 )
                  (  0.0000000 -1.0000000  0.0000000 )
                  (  0.0000000  0.0000000  1.0000000 )


      isym =  3     180 deg rotation - cart. axis [0,1,0]        

 cryst.   s( 3) = (    -1          0          0      )
                  (     0          1          0      )
                  (     0          0         -1      )

 cart.    s( 3) = ( -1.0000000  0.0000000  0.0000000 )
                  (  0.0000000  1.0000000  0.0000000 )
                  (  0.0000000  0.0000000 -1.0000000 )


      isym =  4     180 deg rotation - cart. axis [1,0,0]        

 cryst.   s( 4) = (     1          0          0      )
                  (     0         -1          0      )
                  (     0          0         -1      )

 cart.    s( 4) = (  1.0000000  0.0000000  0.0000000 )
                  (  0.0000000 -1.0000000  0.0000000 )
                  (  0.0000000  0.0000000 -1.0000000 )


      isym =  5     180 deg rotation - cart. axis [1,1,0]        

 cryst.   s( 5) = (     0          1          0      )
                  (     1          0          0      )
                  (     0          0         -1      )

 cart.    s( 5) = (  0.0000000  1.0000000  0.0000000 )
                  (  1.0000000  0.0000000  0.0000000 )
                  (  0.0000000  0.0000000 -1.0000000 )


      isym =  6     180 deg rotation - cart. axis [1,-1,0]       

 cryst.   s( 6) = (     0         -1          0      )
                  (    -1          0          0      )
                  (     0          0         -1      )

 cart.    s( 6) = (  0.0000000 -1.0000000  0.0000000 )
                  ( -1.0000000  0.0000000  0.0000000 )
                  (  0.0000000  0.0000000 -1.0000000 )


      isym =  7      90 deg rotation - cart. axis [0,0,-1]       

 cryst.   s( 7) = (     0         -1          0      )
                  (     1          0          0      )
                  (     0          0          1      )

 cart.    s( 7) = (  0.0000000  1.0000000  0.0000000 )
                  ( -1.0000000  0.0000000  0.0000000 )
                  (  0.0000000  0.0000000  1.0000000 )


      isym =  8      90 deg rotation - cart. axis [0,0,1]        

 cryst.   s( 8) = (     0          1          0      )
                  (    -1          0          0      )
                  (     0          0          1      )

 cart.    s( 8) = (  0.0000000 -1.0000000  0.0000000 )
                  (  1.0000000  0.0000000  0.0000000 )
                  (  0.0000000  0.0000000  1.0000000 )


      isym =  9     180 deg rotation - cart. axis [1,0,1]        

 cryst.   s( 9) = (     0          0          1      )
                  (     0         -1          0      )
                  (     1          0          0      )

 cart.    s( 9) = (  0.0000000  0.0000000  1.0000000 )
                  (  0.0000000 -1.0000000  0.0000000 )
                  (  1.0000000  0.0000000  0.0000000 )


      isym = 10     180 deg rotation - cart. axis [-1,0,1]       

 cryst.   s(10) = (     0          0         -1      )
                  (     0         -1          0      )
                  (    -1          0          0      )

 cart.    s(10) = (  0.0000000  0.0000000 -1.0000000 )
                  (  0.0000000 -1.0000000  0.0000000 )
                  ( -1.0000000  0.0000000  0.0000000 )


      isym = 11      90 deg rotation - cart. axis [0,1,0]        

 cryst.   s(11) = (     0          0         -1      )
                  (     0          1          0      )
                  (     1          0          0      )

 cart.    s(11) = (  0.0000000  0.0000000  1.0000000 )
                  (  0.0000000  1.0000000  0.0000000 )
                  ( -1.0000000  0.0000000  0.0000000 )


      isym = 12      90 deg rotation - cart. axis [0,-1,0]       

 cryst.   s(12) = (     0          0          1      )
                  (     0          1          0      )
                  (    -1          0          0      )

 cart.    s(12) = (  0.0000000  0.0000000 -1.0000000 )
                  (  0.0000000  1.0000000  0.0000000 )
                  (  1.0000000  0.0000000  0.0000000 )


      isym = 13     180 deg rotation - cart. axis [0,1,1]        

 cryst.   s(13) = (    -1          0          0      )
                  (     0          0          1      )
                  (     0          1          0      )

 cart.    s(13) = ( -1.0000000  0.0000000  0.0000000 )
                  (  0.0000000  0.0000000  1.0000000 )
                  (  0.0000000  1.0000000  0.0000000 )


      isym = 14     180 deg rotation - cart. axis [0,1,-1]       

 cryst.   s(14) = (    -1          0          0      )
                  (     0          0         -1      )
                  (     0         -1          0      )

 cart.    s(14) = ( -1.0000000  0.0000000  0.0000000 )
                  (  0.0000000  0.0000000 -1.0000000 )
                  (  0.0000000 -1.0000000  0.0000000 )


      isym = 15      90 deg rotation - cart. axis [-1,0,0]       

 cryst.   s(15) = (     1          0          0      )
                  (     0          0         -1      )
                  (     0          1          0      )

 cart.    s(15) = (  1.0000000  0.0000000  0.0000000 )
                  (  0.0000000  0.0000000  1.0000000 )
                  (  0.0000000 -1.0000000  0.0000000 )


      isym = 16      90 deg rotation - cart. axis [1,0,0]        

 cryst.   s(16) = (     1          0          0      )
                  (     0          0          1      )
                  (     0         -1          0      )

 cart.    s(16) = (  1.0000000  0.0000000  0.0000000 )
                  (  0.0000000  0.0000000 -1.0000000 )
                  (  0.0000000  1.0000000  0.0000000 )


      isym = 17     120 deg rotation - cart. axis [-1,-1,-1]     

 cryst.   s(17) = (     0          0          1      )
                  (     1          0          0      )
                  (     0          1          0      )

 cart.    s(17) = (  0.0000000  1.0000000  0.0000000 )
                  (  0.0000000  0.0000000  1.0000000 )
                  (  1.0000000  0.0000000  0.0000000 )


      isym = 18     120 deg rotation - cart. axis [-1,1,1]       

 cryst.   s(18) = (     0          0         -1      )
                  (    -1          0          0      )
                  (     0          1          0      )

 cart.    s(18) = (  0.0000000 -1.0000000  0.0000000 )
                  (  0.0000000  0.0000000  1.0000000 )
                  ( -1.0000000  0.0000000  0.0000000 )


      isym = 19     120 deg rotation - cart. axis [1,1,-1]       

 cryst.   s(19) = (     0          0         -1      )
                  (     1          0          0      )
                  (     0         -1          0      )

 cart.    s(19) = (  0.0000000  1.0000000  0.0000000 )
                  (  0.0000000  0.0000000 -1.0000000 )
                  ( -1.0000000  0.0000000  0.0000000 )


      isym = 20     120 deg rotation - cart. axis [1,-1,1]       

 cryst.   s(20) = (     0          0          1      )
                  (    -1          0          0      )
                  (     0         -1          0      )

 cart.    s(20) = (  0.0000000 -1.0000000  0.0000000 )
                  (  0.0000000  0.0000000 -1.0000000 )
                  (  1.0000000  0.0000000  0.0000000 )


      isym = 21     120 deg rotation - cart. axis [1,1,1]        

 cryst.   s(21) = (     0          1          0      )
                  (     0          0          1      )
                  (     1          0          0      )

 cart.    s(21) = (  0.0000000  0.0000000  1.0000000 )
                  (  1.0000000  0.0000000  0.0000000 )
                  (  0.0000000  1.0000000  0.0000000 )


      isym = 22     120 deg rotation - cart. axis [-1,1,-1]      

 cryst.   s(22) = (     0         -1          0      )
                  (     0          0         -1      )
                  (     1          0          0      )

 cart.    s(22) = (  0.0000000  0.0000000  1.0000000 )
                  ( -1.0000000  0.0000000  0.0000000 )
                  (  0.0000000 -1.0000000  0.0000000 )


      isym = 23     120 deg rotation - cart. axis [1,-1,-1]      

 cryst.   s(23) = (     0         -1          0      )
                  (     0          0          1      )
                  (    -1          0          0      )

 cart.    s(23) = (  0.0000000  0.0000000 -1.0000000 )
                  ( -1.0000000  0.0000000  0.0000000 )
                  (  0.0000000  1.0000000  0.0000000 )


      isym = 24     120 deg rotation - cart. axis [-1,-1,1]      

 cryst.   s(24) = (     0          1          0      )
                  (     0          0         -1      )
                  (    -1          0          0      )

 cart.    s(24) = (  0.0000000  0.0000000 -1.0000000 )
                  (  1.0000000  0.0000000  0.0000000 )
                  (  0.0000000 -1.0000000  0.0000000 )


      isym = 25     inversion                                    

 cryst.   s(25) = (    -1          0          0      )
                  (     0         -1          0      )
                  (     0          0         -1      )

 cart.    s(25) = ( -1.0000000  0.0000000  0.0000000 )
                  (  0.0000000 -1.0000000  0.0000000 )
                  (  0.0000000  0.0000000 -1.0000000 )


      isym = 26     inv. 180 deg rotation - cart. axis [0,0,1]   

 cryst.   s(26) = (     1          0          0      )
                  (     0          1          0      )
                  (     0          0         -1      )

 cart.    s(26) = (  1.0000000  0.0000000  0.0000000 )
                  (  0.0000000  1.0000000  0.0000000 )
                  (  0.0000000  0.0000000 -1.0000000 )


      isym = 27     inv. 180 deg rotation - cart. axis [0,1,0]   

 cryst.   s(27) = (     1          0          0      )
                  (     0         -1          0      )
                  (     0          0          1      )

 cart.    s(27) = (  1.0000000  0.0000000  0.0000000 )
                  (  0.0000000 -1.0000000  0.0000000 )
                  (  0.0000000  0.0000000  1.0000000 )


      isym = 28     inv. 180 deg rotation - cart. axis [1,0,0]   

 cryst.   s(28) = (    -1          0          0      )
                  (     0          1          0      )
                  (     0          0          1      )

 cart.    s(28) = ( -1.0000000  0.0000000  0.0000000 )
                  (  0.0000000  1.0000000  0.0000000 )
                  (  0.0000000  0.0000000  1.0000000 )


      isym = 29     inv. 180 deg rotation - cart. axis [1,1,0]   

 cryst.   s(29) = (     0         -1          0      )
                  (    -1          0          0      )
                  (     0          0          1      )

 cart.    s(29) = (  0.0000000 -1.0000000  0.0000000 )
                  ( -1.0000000  0.0000000  0.0000000 )
                  (  0.0000000  0.0000000  1.0000000 )


      isym = 30     inv. 180 deg rotation - cart. axis [1,-1,0]  

 cryst.   s(30) = (     0          1          0      )
                  (     1          0          0      )
                  (     0          0          1      )

 cart.    s(30) = (  0.0000000  1.0000000  0.0000000 )
                  (  1.0000000  0.0000000  0.0000000 )
                  (  0.0000000  0.0000000  1.0000000 )


      isym = 31     inv.  90 deg rotation - cart. axis [0,0,-1]  

 cryst.   s(31) = (     0          1          0      )
                  (    -1          0          0      )
                  (     0          0         -1      )

 cart.    s(31) = (  0.0000000 -1.0000000  0.0000000 )
                  (  1.0000000  0.0000000  0.0000000 )
                  (  0.0000000  0.0000000 -1.0000000 )


      isym = 32     inv.  90 deg rotation - cart. axis [0,0,1]   

 cryst.   s(32) = (     0         -1          0      )
                  (     1          0          0      )
                  (     0          0         -1      )

 cart.    s(32) = (  0.0000000  1.0000000  0.0000000 )
                  ( -1.0000000  0.0000000  0.0000000 )
                  (  0.0000000  0.0000000 -1.0000000 )


      isym = 33     inv. 180 deg rotation - cart. axis [1,0,1]   

 cryst.   s(33) = (     0          0         -1      )
                  (     0          1          0      )
                  (    -1          0          0      )

 cart.    s(33) = (  0.0000000  0.0000000 -1.0000000 )
                  (  0.0000000  1.0000000  0.0000000 )
                  ( -1.0000000  0.0000000  0.0000000 )


      isym = 34     inv. 180 deg rotation - cart. axis [-1,0,1]  

 cryst.   s(34) = (     0          0          1      )
                  (     0          1          0      )
                  (     1          0          0      )

 cart.    s(34) = (  0.0000000  0.0000000  1.0000000 )
                  (  0.0000000  1.0000000  0.0000000 )
                  (  1.0000000  0.0000000  0.0000000 )


      isym = 35     inv.  90 deg rotation - cart. axis [0,1,0]   

 cryst.   s(35) = (     0          0          1      )
                  (     0         -1          0      )
                  (    -1          0          0      )

 cart.    s(35) = (  0.0000000  0.0000000 -1.0000000 )
                  (  0.0000000 -1.0000000  0.0000000 )
                  (  1.0000000  0.0000000  0.0000000 )


      isym = 36     inv.  90 deg rotation - cart. axis [0,-1,0]  

 cryst.   s(36) = (     0          0         -1      )
                  (     0         -1          0      )
                  (     1          0          0      )

 cart.    s(36) = (  0.0000000  0.0000000  1.0000000 )
                  (  0.0000000 -1.0000000  0.0000000 )
                  ( -1.0000000  0.0000000  0.0000000 )


      isym = 37     inv. 180 deg rotation - cart. axis [0,1,1]   

 cryst.   s(37) = (     1          0          0      )
                  (     0          0         -1      )
                  (     0         -1          0      )

 cart.    s(37) = (  1.0000000  0.0000000  0.0000000 )
                  (  0.0000000  0.0000000 -1.0000000 )
                  (  0.0000000 -1.0000000  0.0000000 )


      isym = 38     inv. 180 deg rotation - cart. axis [0,1,-1]  

 cryst.   s(38) = (     1          0          0      )
                  (     0          0          1      )
                  (     0          1          0      )

 cart.    s(38) = (  1.0000000  0.0000000  0.0000000 )
                  (  0.0000000  0.0000000  1.0000000 )
                  (  0.0000000  1.0000000  0.0000000 )


      isym = 39     inv.  90 deg rotation - cart. axis [-1,0,0]  

 cryst.   s(39) = (    -1          0          0      )
                  (     0          0          1      )
                  (     0         -1          0      )

 cart.    s(39) = ( -1.0000000  0.0000000  0.0000000 )
                  (  0.0000000  0.0000000 -1.0000000 )
                  (  0.0000000  1.0000000  0.0000000 )


      isym = 40     inv.  90 deg rotation - cart. axis [1,0,0]   

 cryst.   s(40) = (    -1          0          0      )
                  (     0          0         -1      )
                  (     0          1          0      )

 cart.    s(40) = ( -1.0000000  0.0000000  0.0000000 )
                  (  0.0000000  0.0000000  1.0000000 )
                  (  0.0000000 -1.0000000  0.0000000 )


      isym = 41     inv. 120 deg rotation - cart. axis [-1,-1,-1]

 cryst.   s(41) = (     0          0         -1      )
                  (    -1          0          0      )
                  (     0         -1          0      )

 cart.    s(41) = (  0.0000000 -1.0000000  0.0000000 )
                  (  0.0000000  0.0000000 -1.0000000 )
                  ( -1.0000000  0.0000000  0.0000000 )


      isym = 42     inv. 120 deg rotation - cart. axis [-1,1,1]  

 cryst.   s(42) = (     0          0          1      )
                  (     1          0          0      )
                  (     0         -1          0      )

 cart.    s(42) = (  0.0000000  1.0000000  0.0000000 )
                  (  0.0000000  0.0000000 -1.0000000 )
                  (  1.0000000  0.0000000  0.0000000 )


      isym = 43     inv. 120 deg rotation - cart. axis [1,1,-1]  

 cryst.   s(43) = (     0          0          1      )
                  (    -1          0          0      )
                  (     0          1          0      )

 cart.    s(43) = (  0.0000000 -1.0000000  0.0000000 )
                  (  0.0000000  0.0000000  1.0000000 )
                  (  1.0000000  0.0000000  0.0000000 )


      isym = 44     inv. 120 deg rotation - cart. axis [1,-1,1]  

 cryst.   s(44) = (     0          0         -1      )
                  (     1          0          0      )
                  (     0          1          0      )

 cart.    s(44) = (  0.0000000  1.0000000  0.0000000 )
                  (  0.0000000  0.0000000  1.0000000 )
                  ( -1.0000000  0.0000000  0.0000000 )


      isym = 45     inv. 120 deg rotation - cart. axis [1,1,1]   

 cryst.   s(45) = (     0         -1          0      )
                  (     0          0         -1      )
                  (    -1          0          0      )

 cart.    s(45) = (  0.0000000  0.0000000 -1.0000000 )
                  ( -1.0000000  0.0000000  0.0000000 )
                  (  0.0000000 -1.0000000  0.0000000 )


      isym = 46     inv. 120 deg rotation - cart. axis [-1,1,-1] 

 cryst.   s(46) = (     0          1          0      )
                  (     0          0          1      )
                  (    -1          0          0      )

 cart.    s(46) = (  0.0000000  0.0000000 -1.0000000 )
                  (  1.0000000  0.0000000  0.0000000 )
                  (  0.0000000  1.0000000  0.0000000 )


      isym = 47     inv. 120 deg rotation - cart. axis [1,-1,-1] 

 cryst.   s(47) = (     0          1          0      )
                  (     0          0         -1      )
                  (     1          0          0      )

 cart.    s(47) = (  0.0000000  0.0000000  1.0000000 )
                  (  1.0000000  0.0000000  0.0000000 )
                  (  0.0000000 -1.0000000  0.0000000 )


      isym = 48     inv. 120 deg rotation - cart. axis [-1,-1,1] 

 cryst.   s(48) = (     0         -1          0      )
                  (     0          0          1      )
                  (     1          0          0      )

 cart.    s(48) = (  0.0000000  0.0000000  1.0000000 )
                  ( -1.0000000  0.0000000  0.0000000 )
                  (  0.0000000  1.0000000  0.0000000 )


     point group O_h (m-3m) 
     there are 10 classes
     the character table:

       E     8C3   3C2   6C4   6C2'  i     8S6   3s_h  6S4   6s_d 
A_1g   1.00  1.00  1.00  1.00  1.00  1.00  1.00  1.00  1.00  1.00
A_2g   1.00  1.00  1.00 -1.00 -1.00  1.00  1.00  1.00 -1.00 -1.00
E_g    2.00 -1.00  2.00  0.00  0.00  2.00 -1.00  2.00  0.00  0.00
T_1g   3.00  0.00 -1.00  1.00 -1.00  3.00  0.00 -1.00  1.00 -1.00
T_2g   3.00  0.00 -1.00 -1.00  1.00  3.00  0.00 -1.00 -1.00  1.00
A_1u   1.00  1.00  1.00  1.00  1.00 -1.00 -1.00 -1.00 -1.00 -1.00
A_2u   1.00  1.00  1.00 -1.00 -1.00 -1.00 -1.00 -1.00  1.00  1.00
E_u    2.00 -1.00  2.00  0.00  0.00 -2.00  1.00 -2.00  0.00  0.00
T_1u   3.00  0.00 -1.00  1.00 -1.00 -3.00  0.00  1.00 -1.00  1.00
T_2u   3.00  0.00 -1.00 -1.00  1.00 -3.00  0.00  1.00  1.00 -1.00

     the symmetry operations in each class and the name of the first element:

     E        1
          identity                                               
     8C3     17   19   20   18   24   21   22   23
          120 deg rotation - cart. axis [-1,-1,-1]               
     3C2      2    4    3
          180 deg rotation - cart. axis [0,0,1]                  
     6C4      7    8   15   16   12   11
           90 deg rotation - cart. axis [0,0,-1]                 
     6C2'     5    6   14   13   10    9
          180 deg rotation - cart. axis [1,1,0]                  
     i       25
          inversion                                              
     8S6     41   43   44   42   48   45   46   47
          inv. 120 deg rotation - cart. axis [-1,-1,-1]          
     3s_h    26   28   27
          inv. 180 deg rotation - cart. axis [0,0,1]             
     6S4     31   32   39   40   36   35
          inv.  90 deg rotation - cart. axis [0,0,-1]            
     6s_d    29   30   38   37   34   33
          inv. 180 deg rotation - cart. axis [1,1,0]             

   Cartesian axes

     site n.     atom                  positions (alat units)
         1        Cs     tau(   1) = (   0.7500000   0.7500000   0.7500000  )
         2        Cs     tau(   2) = (   0.2500000   0.7500000   0.2500000  )
         3        Cs     tau(   3) = (   0.7500000   0.2500000   0.2500000  )
         4        Cs     tau(   4) = (   0.2500000   0.2500000   0.7500000  )
         5        Cs     tau(   5) = (   0.7500000   0.7500000   0.2500000  )
         6        Cs     tau(   6) = (   0.7500000   0.2500000   0.7500000  )
         7        Cs     tau(   7) = (   0.2500000   0.7500000   0.7500000  )
         8        Cs     tau(   8) = (   0.2500000   0.2500000   0.2500000  )
         9        Pb     tau(   9) = (   0.0000000   0.0000000   0.0000000  )
        10        Pb     tau(  10) = (   0.0000000   0.5000000   0.0000000  )
        11        Pb     tau(  11) = (   0.5000000   0.0000000   0.0000000  )
        12        Pb     tau(  12) = (   0.0000000   0.0000000   0.5000000  )
        13        Pb     tau(  13) = (   0.0000000   0.5000000   0.5000000  )
        14        Pb     tau(  14) = (   0.5000000   0.5000000   0.0000000  )
        15        Pb     tau(  15) = (   0.5000000   0.0000000   0.5000000  )
        16        Pb     tau(  16) = (   0.5000000   0.5000000   0.5000000  )
        17        I      tau(  17) = (   0.0000000   0.2500000   0.0000000  )
        18        I      tau(  18) = (   0.0000000   0.7500000   0.0000000  )
        19        I      tau(  19) = (   0.2500000   0.0000000   0.0000000  )
        20        I      tau(  20) = (   0.7500000   0.0000000   0.0000000  )
        21        I      tau(  21) = (   0.0000000   0.0000000   0.7500000  )
        22        I      tau(  22) = (   0.0000000   0.0000000   0.2500000  )
        23        I      tau(  23) = (   0.5000000   0.0000000   0.7500000  )
        24        I      tau(  24) = (   0.5000000   0.0000000   0.2500000  )
        25        I      tau(  25) = (   0.7500000   0.5000000   0.0000000  )
        26        I      tau(  26) = (   0.2500000   0.5000000   0.0000000  )
        27        I      tau(  27) = (   0.0000000   0.7500000   0.5000000  )
        28        I      tau(  28) = (   0.0000000   0.2500000   0.5000000  )
        29        I      tau(  29) = (   0.0000000   0.5000000   0.2500000  )
        30        I      tau(  30) = (   0.0000000   0.5000000   0.7500000  )
        31        I      tau(  31) = (   0.5000000   0.7500000   0.0000000  )
        32        I      tau(  32) = (   0.5000000   0.2500000   0.0000000  )
        33        I      tau(  33) = (   0.7500000   0.0000000   0.5000000  )
        34        I      tau(  34) = (   0.2500000   0.0000000   0.5000000  )
        35        I      tau(  35) = (   0.7500000   0.5000000   0.5000000  )
        36        I      tau(  36) = (   0.2500000   0.5000000   0.5000000  )
        37        I      tau(  37) = (   0.5000000   0.5000000   0.2500000  )
        38        I      tau(  38) = (   0.5000000   0.5000000   0.7500000  )
        39        I      tau(  39) = (   0.5000000   0.7500000   0.5000000  )
        40        I      tau(  40) = (   0.5000000   0.2500000   0.5000000  )

   Crystallographic axes

     site n.     atom                  positions (cryst. coord.)
         1        Cs     tau(   1) = (  0.7500000  0.7500000  0.7500000  )
         2        Cs     tau(   2) = (  0.2500000  0.7500000  0.2500000  )
         3        Cs     tau(   3) = (  0.7500000  0.2500000  0.2500000  )
         4        Cs     tau(   4) = (  0.2500000  0.2500000  0.7500000  )
         5        Cs     tau(   5) = (  0.7500000  0.7500000  0.2500000  )
         6        Cs     tau(   6) = (  0.7500000  0.2500000  0.7500000  )
         7        Cs     tau(   7) = (  0.2500000  0.7500000  0.7500000  )
         8        Cs     tau(   8) = (  0.2500000  0.2500000  0.2500000  )
         9        Pb     tau(   9) = (  0.0000000  0.0000000  0.0000000  )
        10        Pb     tau(  10) = (  0.0000000  0.5000000  0.0000000  )
        11        Pb     tau(  11) = (  0.5000000  0.0000000  0.0000000  )
        12        Pb     tau(  12) = (  0.0000000  0.0000000  0.5000000  )
        13        Pb     tau(  13) = (  0.0000000  0.5000000  0.5000000  )
        14        Pb     tau(  14) = (  0.5000000  0.5000000  0.0000000  )
        15        Pb     tau(  15) = (  0.5000000  0.0000000  0.5000000  )
        16        Pb     tau(  16) = (  0.5000000  0.5000000  0.5000000  )
        17        I      tau(  17) = (  0.0000000  0.2500000  0.0000000  )
        18        I      tau(  18) = (  0.0000000  0.7500000  0.0000000  )
        19        I      tau(  19) = (  0.2500000  0.0000000  0.0000000  )
        20        I      tau(  20) = (  0.7500000  0.0000000  0.0000000  )
        21        I      tau(  21) = (  0.0000000  0.0000000  0.7500000  )
        22        I      tau(  22) = (  0.0000000  0.0000000  0.2500000  )
        23        I      tau(  23) = (  0.5000000  0.0000000  0.7500000  )
        24        I      tau(  24) = (  0.5000000  0.0000000  0.2500000  )
        25        I      tau(  25) = (  0.7500000  0.5000000  0.0000000  )
        26        I      tau(  26) = (  0.2500000  0.5000000  0.0000000  )
        27        I      tau(  27) = (  0.0000000  0.7500000  0.5000000  )
        28        I      tau(  28) = (  0.0000000  0.2500000  0.5000000  )
        29        I      tau(  29) = (  0.0000000  0.5000000  0.2500000  )
        30        I      tau(  30) = (  0.0000000  0.5000000  0.7500000  )
        31        I      tau(  31) = (  0.5000000  0.7500000  0.0000000  )
        32        I      tau(  32) = (  0.5000000  0.2500000  0.0000000  )
        33        I      tau(  33) = (  0.7500000  0.0000000  0.5000000  )
        34        I      tau(  34) = (  0.2500000  0.0000000  0.5000000  )
        35        I      tau(  35) = (  0.7500000  0.5000000  0.5000000  )
        36        I      tau(  36) = (  0.2500000  0.5000000  0.5000000  )
        37        I      tau(  37) = (  0.5000000  0.5000000  0.2500000  )
        38        I      tau(  38) = (  0.5000000  0.5000000  0.7500000  )
        39        I      tau(  39) = (  0.5000000  0.7500000  0.5000000  )
        40        I      tau(  40) = (  0.5000000  0.2500000  0.5000000  )

     number of k points=    10  Marzari-Vanderbilt smearing, width (Ry)=  0.1470
                       cart. coord. in units 2pi/alat
        k(    1) = (   0.0000000   0.0000000   0.0000000), wk =   0.0312500
        k(    2) = (   0.0000000   0.0000000   0.2500000), wk =   0.1875000
        k(    3) = (   0.0000000   0.0000000  -0.5000000), wk =   0.0937500
        k(    4) = (   0.0000000   0.2500000   0.2500000), wk =   0.3750000
        k(    5) = (   0.0000000   0.2500000  -0.5000000), wk =   0.3750000
        k(    6) = (   0.0000000  -0.5000000  -0.5000000), wk =   0.0937500
        k(    7) = (   0.2500000   0.2500000   0.2500000), wk =   0.2500000
        k(    8) = (   0.2500000   0.2500000  -0.5000000), wk =   0.3750000
        k(    9) = (   0.2500000  -0.5000000  -0.5000000), wk =   0.1875000
        k(   10) = (  -0.5000000  -0.5000000  -0.5000000), wk =   0.0312500

                       cryst. coord.
        k(    1) = (   0.0000000   0.0000000   0.0000000), wk =   0.0312500
        k(    2) = (   0.0000000   0.0000000   0.2500000), wk =   0.1875000
        k(    3) = (   0.0000000   0.0000000  -0.5000000), wk =   0.0937500
        k(    4) = (   0.0000000   0.2500000   0.2500000), wk =   0.3750000
        k(    5) = (   0.0000000   0.2500000  -0.5000000), wk =   0.3750000
        k(    6) = (   0.0000000  -0.5000000  -0.5000000), wk =   0.0937500
        k(    7) = (   0.2500000   0.2500000   0.2500000), wk =   0.2500000
        k(    8) = (   0.2500000   0.2500000  -0.5000000), wk =   0.3750000
        k(    9) = (   0.2500000  -0.5000000  -0.5000000), wk =   0.1875000
        k(   10) = (  -0.5000000  -0.5000000  -0.5000000), wk =   0.0312500

     Dense  grid:  1305271 G-vectors     FFT dimensions: ( 135, 135, 135)

     Smooth grid:   461719 G-vectors     FFT dimensions: (  96,  96,  96)

     Dynamical RAM for                 wfc:      40.50 MB

     Dynamical RAM for     wfc (w. buffer):     445.47 MB

     Dynamical RAM for           str. fact:      14.94 MB

     Dynamical RAM for           local pot:       0.00 MB

     Dynamical RAM for          nlocal pot:     105.64 MB

     Dynamical RAM for                qrad:       4.31 MB

     Dynamical RAM for          rho,v,vnew:      29.12 MB

     Dynamical RAM for               rhoin:       9.71 MB

     Dynamical RAM for            rho*nmix:      79.67 MB

     Dynamical RAM for           G-vectors:      19.55 MB

     Dynamical RAM for          h,s,v(r/c):       6.20 MB

     Dynamical RAM for          <psi|beta>:       1.35 MB

     Dynamical RAM for                 psi:      80.99 MB

     Dynamical RAM for                hpsi:      80.99 MB

     Dynamical RAM for                spsi:      80.99 MB

     Dynamical RAM for      wfcinit/wfcrot:      81.77 MB

     Dynamical RAM for           addusdens:    1045.64 MB

     Dynamical RAM for          addusforce:    1277.26 MB

     Dynamical RAM for         addusstress:    1000.82 MB

     Estimated static dynamical RAM per process >     672.29 MB

     Estimated max dynamical RAM per process >       1.98 GB

     Estimated total dynamical RAM >       7.93 GB

     Initial potential from superposition of free atoms

     starting charge     351.6643, renormalised to     352.0000
     Starting wfcs are  272 randomized atomic wfcs
     Checking if some PAW data can be deallocated... 
       PAW data deallocated on    1 nodes for type:  2
       PAW data deallocated on    2 nodes for type:  3

     total cpu time spent up to now is       35.9 secs

     Self-consistent Calculation
[tb_dev] Currently allocated     8.67E+00 Mbytes, locked:    0 /   6
[tb_pin] Currently allocated     0.00E+00 Mbytes, locked:    0 /   0

     iteration #  1     ecut=    40.00 Ry     beta= 0.40
     Davidson diagonalization with overlap

---- Real-time Memory Report at c_bands before calling an iterative solver
          1451 MiB given to the printing process from OS
             0 MiB allocation reported by mallinfo(arena+hblkhd)
         12774 MiB available memory on the node where the printing process lives
     GPU memory used/free/total (MiB): 8552 / 3371 / 11923
------------------
     ethr =  1.00E-02,  avg # of iterations =  2.0

     Threshold (ethr) on eigenvalues was too large:
     Diagonalizing with lowered threshold

     Davidson diagonalization with overlap

---- Real-time Memory Report at c_bands before calling an iterative solver
          1484 MiB given to the printing process from OS
             0 MiB allocation reported by mallinfo(arena+hblkhd)
         12706 MiB available memory on the node where the printing process lives
     GPU memory used/free/total (MiB): 9256 / 2667 / 11923
------------------
     ethr =  2.44E-04,  avg # of iterations =  5.3

     total cpu time spent up to now is      170.3 secs

     total energy              =  -16564.33548383 Ry
     estimated scf accuracy    <       0.74960267 Ry
[tb_dev] Currently allocated     3.05E-04 Mbytes, locked:    0 /   2
[tb_pin] Currently allocated     0.00E+00 Mbytes, locked:    0 /   0

     iteration #  2     ecut=    40.00 Ry     beta= 0.40
     Davidson diagonalization with overlap

---- Real-time Memory Report at c_bands before calling an iterative solver
          1501 MiB given to the printing process from OS
             0 MiB allocation reported by mallinfo(arena+hblkhd)
         12638 MiB available memory on the node where the printing process lives
     GPU memory used/free/total (MiB): 9366 / 2557 / 11923
------------------
     ethr =  2.13E-04,  avg # of iterations =  2.7

     total cpu time spent up to now is      243.7 secs

     total energy              =  -16564.49204280 Ry
     estimated scf accuracy    <       0.03384172 Ry
[tb_dev] Currently allocated     3.05E-04 Mbytes, locked:    0 /   2
[tb_pin] Currently allocated     0.00E+00 Mbytes, locked:    0 /   0

     iteration #  3     ecut=    40.00 Ry     beta= 0.40
     Davidson diagonalization with overlap

---- Real-time Memory Report at c_bands before calling an iterative solver
          1505 MiB given to the printing process from OS
             0 MiB allocation reported by mallinfo(arena+hblkhd)
         12585 MiB available memory on the node where the printing process lives
     GPU memory used/free/total (MiB): 9366 / 2557 / 11923
------------------
     ethr =  9.61E-06,  avg # of iterations =  5.5

     total cpu time spent up to now is      342.1 secs

     total energy              =  -16564.51515851 Ry
     estimated scf accuracy    <       0.01504475 Ry
[tb_dev] Currently allocated     3.05E-04 Mbytes, locked:    0 /   2
[tb_pin] Currently allocated     0.00E+00 Mbytes, locked:    0 /   0

     iteration #  4     ecut=    40.00 Ry     beta= 0.40
     Davidson diagonalization with overlap

---- Real-time Memory Report at c_bands before calling an iterative solver
          1509 MiB given to the printing process from OS
             0 MiB allocation reported by mallinfo(arena+hblkhd)
         12577 MiB available memory on the node where the printing process lives
     GPU memory used/free/total (MiB): 9366 / 2557 / 11923
------------------
     c_bands:  1 eigenvalues not converged
     c_bands:  1 eigenvalues not converged
     ethr =  4.27E-06,  avg # of iterations =  8.0

     total cpu time spent up to now is      428.1 secs

     total energy              =  -16564.51647050 Ry
     estimated scf accuracy    <       0.00634582 Ry
[tb_dev] Currently allocated     3.05E-04 Mbytes, locked:    0 /   2
[tb_pin] Currently allocated     0.00E+00 Mbytes, locked:    0 /   0

     iteration #  5     ecut=    40.00 Ry     beta= 0.40
     Davidson diagonalization with overlap

---- Real-time Memory Report at c_bands before calling an iterative solver
          1514 MiB given to the printing process from OS
             0 MiB allocation reported by mallinfo(arena+hblkhd)
         12559 MiB available memory on the node where the printing process lives
     GPU memory used/free/total (MiB): 9368 / 2555 / 11923
------------------
     c_bands:  1 eigenvalues not converged
     c_bands:  1 eigenvalues not converged
     c_bands:  2 eigenvalues not converged
     c_bands:  2 eigenvalues not converged
     ethr =  1.80E-06,  avg # of iterations = 13.4

     total cpu time spent up to now is      525.1 secs

     total energy              =  -16564.51683429 Ry
     estimated scf accuracy    <       0.01153448 Ry
[tb_dev] Currently allocated     3.05E-04 Mbytes, locked:    0 /   2
[tb_pin] Currently allocated     0.00E+00 Mbytes, locked:    0 /   0

     iteration #  6     ecut=    40.00 Ry     beta= 0.40
     Davidson diagonalization with overlap

---- Real-time Memory Report at c_bands before calling an iterative solver
          1518 MiB given to the printing process from OS
             0 MiB allocation reported by mallinfo(arena+hblkhd)
         12525 MiB available memory on the node where the printing process lives
     GPU memory used/free/total (MiB): 9368 / 2555 / 11923
------------------
     c_bands:  3 eigenvalues not converged
     ethr =  1.80E-06,  avg # of iterations =  7.6

     total cpu time spent up to now is      603.7 secs

     total energy              =  -16564.51788338 Ry
     estimated scf accuracy    <       0.00266926 Ry
[tb_dev] Currently allocated     3.05E-04 Mbytes, locked:    0 /   2
[tb_pin] Currently allocated     0.00E+00 Mbytes, locked:    0 /   0

     iteration #  7     ecut=    40.00 Ry     beta= 0.40
     Davidson diagonalization with overlap

---- Real-time Memory Report at c_bands before calling an iterative solver
          1523 MiB given to the printing process from OS
             0 MiB allocation reported by mallinfo(arena+hblkhd)
         12509 MiB available memory on the node where the printing process lives
     GPU memory used/free/total (MiB): 9368 / 2555 / 11923
------------------
     ethr =  7.58E-07,  avg # of iterations =  7.5
     Minimization algorithm failed to find Fermi energy: reverting to bisection
     Possible cause: smearing is larger than the electronic band-gap.

     total cpu time spent up to now is      680.4 secs

     total energy              =  -16564.51816865 Ry
     estimated scf accuracy    <       0.00011001 Ry
[tb_dev] Currently allocated     3.05E-04 Mbytes, locked:    0 /   2
[tb_pin] Currently allocated     0.00E+00 Mbytes, locked:    0 /   0

     iteration #  8     ecut=    40.00 Ry     beta= 0.40
     Davidson diagonalization with overlap

---- Real-time Memory Report at c_bands before calling an iterative solver
          1527 MiB given to the printing process from OS
             0 MiB allocation reported by mallinfo(arena+hblkhd)
         12496 MiB available memory on the node where the printing process lives
     GPU memory used/free/total (MiB): 9368 / 2555 / 11923
------------------
     ethr =  3.13E-08,  avg # of iterations =  8.9
     Minimization algorithm failed to find Fermi energy: reverting to bisection
     Possible cause: smearing is larger than the electronic band-gap.

     total cpu time spent up to now is      817.6 secs

     total energy              =  -16564.51825087 Ry
     estimated scf accuracy    <       0.00005009 Ry
[tb_dev] Currently allocated     3.05E-04 Mbytes, locked:    0 /   2
[tb_pin] Currently allocated     0.00E+00 Mbytes, locked:    0 /   0

     iteration #  9     ecut=    40.00 Ry     beta= 0.40
     Davidson diagonalization with overlap

---- Real-time Memory Report at c_bands before calling an iterative solver
          1534 MiB given to the printing process from OS
             0 MiB allocation reported by mallinfo(arena+hblkhd)
         12505 MiB available memory on the node where the printing process lives
     GPU memory used/free/total (MiB): 9368 / 2555 / 11923
------------------
     ethr =  1.42E-08,  avg # of iterations =  4.6
     Minimization algorithm failed to find Fermi energy: reverting to bisection
     Possible cause: smearing is larger than the electronic band-gap.

     total cpu time spent up to now is      891.2 secs

     total energy              =  -16564.51825401 Ry
     estimated scf accuracy    <       0.00001080 Ry
[tb_dev] Currently allocated     3.05E-04 Mbytes, locked:    0 /   2
[tb_pin] Currently allocated     0.00E+00 Mbytes, locked:    0 /   0

     iteration # 10     ecut=    40.00 Ry     beta= 0.40
     Davidson diagonalization with overlap

---- Real-time Memory Report at c_bands before calling an iterative solver
          1539 MiB given to the printing process from OS
             0 MiB allocation reported by mallinfo(arena+hblkhd)
         12474 MiB available memory on the node where the printing process lives
     GPU memory used/free/total (MiB): 9368 / 2555 / 11923
------------------
     ethr =  3.07E-09,  avg # of iterations =  7.6
     Minimization algorithm failed to find Fermi energy: reverting to bisection
     Possible cause: smearing is larger than the electronic band-gap.

     total cpu time spent up to now is     1002.1 secs

     total energy              =  -16564.51825725 Ry
     estimated scf accuracy    <       0.00000398 Ry
[tb_dev] Currently allocated     3.05E-04 Mbytes, locked:    0 /   2
[tb_pin] Currently allocated     0.00E+00 Mbytes, locked:    0 /   0

     iteration # 11     ecut=    40.00 Ry     beta= 0.40
     Davidson diagonalization with overlap

---- Real-time Memory Report at c_bands before calling an iterative solver
          1541 MiB given to the printing process from OS
             0 MiB allocation reported by mallinfo(arena+hblkhd)
         12466 MiB available memory on the node where the printing process lives
     GPU memory used/free/total (MiB): 9368 / 2555 / 11923
------------------
     ethr =  1.13E-09,  avg # of iterations =  6.3
     Minimization algorithm failed to find Fermi energy: reverting to bisection
     Possible cause: smearing is larger than the electronic band-gap.

     total cpu time spent up to now is     1080.1 secs

     total energy              =  -16564.51825769 Ry
     estimated scf accuracy    <       0.00000041 Ry
[tb_dev] Currently allocated     3.05E-04 Mbytes, locked:    0 /   2
[tb_pin] Currently allocated     0.00E+00 Mbytes, locked:    0 /   0

     iteration # 12     ecut=    40.00 Ry     beta= 0.40
     Davidson diagonalization with overlap

---- Real-time Memory Report at c_bands before calling an iterative solver
          1541 MiB given to the printing process from OS
             0 MiB allocation reported by mallinfo(arena+hblkhd)
         12461 MiB available memory on the node where the printing process lives
     GPU memory used/free/total (MiB): 9368 / 2555 / 11923
------------------
     ethr =  1.17E-10,  avg # of iterations =  6.1
     Minimization algorithm failed to find Fermi energy: reverting to bisection
     Possible cause: smearing is larger than the electronic band-gap.

     total cpu time spent up to now is     1204.2 secs

     total energy              =  -16564.51825807 Ry
     estimated scf accuracy    <       0.00000031 Ry
[tb_dev] Currently allocated     3.05E-04 Mbytes, locked:    0 /   2
[tb_pin] Currently allocated     0.00E+00 Mbytes, locked:    0 /   0

     iteration # 13     ecut=    40.00 Ry     beta= 0.40
     Davidson diagonalization with overlap

---- Real-time Memory Report at c_bands before calling an iterative solver
          1542 MiB given to the printing process from OS
             0 MiB allocation reported by mallinfo(arena+hblkhd)
         12448 MiB available memory on the node where the printing process lives
     GPU memory used/free/total (MiB): 9368 / 2555 / 11923
------------------
     ethr =  8.82E-11,  avg # of iterations =  3.0
     Minimization algorithm failed to find Fermi energy: reverting to bisection
     Possible cause: smearing is larger than the electronic band-gap.

     total cpu time spent up to now is     1278.0 secs

     total energy              =  -16564.51825811 Ry
     estimated scf accuracy    <       0.00000004 Ry
[tb_dev] Currently allocated     3.05E-04 Mbytes, locked:    0 /   2
[tb_pin] Currently allocated     0.00E+00 Mbytes, locked:    0 /   0

     iteration # 14     ecut=    40.00 Ry     beta= 0.40
     Davidson diagonalization with overlap

---- Real-time Memory Report at c_bands before calling an iterative solver
          1542 MiB given to the printing process from OS
             0 MiB allocation reported by mallinfo(arena+hblkhd)
         12441 MiB available memory on the node where the printing process lives
     GPU memory used/free/total (MiB): 9368 / 2555 / 11923
------------------
     ethr =  1.18E-11,  avg # of iterations =  7.9
     Minimization algorithm failed to find Fermi energy: reverting to bisection
     Possible cause: smearing is larger than the electronic band-gap.

     total cpu time spent up to now is     1387.3 secs

     total energy              =  -16564.51825814 Ry
     estimated scf accuracy    <          3.7E-09 Ry
[tb_dev] Currently allocated     3.05E-04 Mbytes, locked:    0 /   2
[tb_pin] Currently allocated     0.00E+00 Mbytes, locked:    0 /   0

     iteration # 15     ecut=    40.00 Ry     beta= 0.40
     Davidson diagonalization with overlap

---- Real-time Memory Report at c_bands before calling an iterative solver
          1543 MiB given to the printing process from OS
             0 MiB allocation reported by mallinfo(arena+hblkhd)
         12377 MiB available memory on the node where the printing process lives
     GPU memory used/free/total (MiB): 9368 / 2555 / 11923
------------------
     c_bands:  1 eigenvalues not converged
     ethr =  1.04E-12,  avg # of iterations = 10.8
     Minimization algorithm failed to find Fermi energy: reverting to bisection
     Possible cause: smearing is larger than the electronic band-gap.

     total cpu time spent up to now is     1508.8 secs

     total energy              =  -16564.51825950 Ry
     estimated scf accuracy    <          8.6E-09 Ry
[tb_dev] Currently allocated     3.05E-04 Mbytes, locked:    0 /   2
[tb_pin] Currently allocated     0.00E+00 Mbytes, locked:    0 /   0

     iteration # 16     ecut=    40.00 Ry     beta= 0.40
     Davidson diagonalization with overlap

---- Real-time Memory Report at c_bands before calling an iterative solver
          1543 MiB given to the printing process from OS
             0 MiB allocation reported by mallinfo(arena+hblkhd)
         12417 MiB available memory on the node where the printing process lives
     GPU memory used/free/total (MiB): 9368 / 2555 / 11923
------------------
     ethr =  1.04E-12,  avg # of iterations =  5.9
     Minimization algorithm failed to find Fermi energy: reverting to bisection
     Possible cause: smearing is larger than the electronic band-gap.

     total cpu time spent up to now is     1581.6 secs

     total energy              =  -16564.51825964 Ry
     estimated scf accuracy    <          6.2E-09 Ry
[tb_dev] Currently allocated     3.05E-04 Mbytes, locked:    0 /   2
[tb_pin] Currently allocated     0.00E+00 Mbytes, locked:    0 /   0

     iteration # 17     ecut=    40.00 Ry     beta= 0.40
     Davidson diagonalization with overlap

---- Real-time Memory Report at c_bands before calling an iterative solver
          1543 MiB given to the printing process from OS
             0 MiB allocation reported by mallinfo(arena+hblkhd)
         12429 MiB available memory on the node where the printing process lives
     GPU memory used/free/total (MiB): 9368 / 2555 / 11923
------------------
     ethr =  1.04E-12,  avg # of iterations =  5.9
     Minimization algorithm failed to find Fermi energy: reverting to bisection
     Possible cause: smearing is larger than the electronic band-gap.

     total cpu time spent up to now is     1656.6 secs

     total energy              =  -16564.51825966 Ry
     estimated scf accuracy    <          3.2E-09 Ry
[tb_dev] Currently allocated     3.05E-04 Mbytes, locked:    0 /   2
[tb_pin] Currently allocated     0.00E+00 Mbytes, locked:    0 /   0

     iteration # 18     ecut=    40.00 Ry     beta= 0.40
     Davidson diagonalization with overlap

---- Real-time Memory Report at c_bands before calling an iterative solver
          1543 MiB given to the printing process from OS
             0 MiB allocation reported by mallinfo(arena+hblkhd)
         12423 MiB available memory on the node where the printing process lives
     GPU memory used/free/total (MiB): 9368 / 2555 / 11923
------------------
     c_bands:  1 eigenvalues not converged
     ethr =  9.06E-13,  avg # of iterations =  7.9
     Minimization algorithm failed to find Fermi energy: reverting to bisection
     Possible cause: smearing is larger than the electronic band-gap.

     total cpu time spent up to now is     1740.1 secs

     total energy              =  -16564.51825975 Ry
     estimated scf accuracy    <       0.00000052 Ry
[tb_dev] Currently allocated     3.05E-04 Mbytes, locked:    0 /   2
[tb_pin] Currently allocated     0.00E+00 Mbytes, locked:    0 /   0

     iteration # 19     ecut=    40.00 Ry     beta= 0.40
     Davidson diagonalization with overlap

---- Real-time Memory Report at c_bands before calling an iterative solver
          1543 MiB given to the printing process from OS
             0 MiB allocation reported by mallinfo(arena+hblkhd)
         12420 MiB available memory on the node where the printing process lives
     GPU memory used/free/total (MiB): 9368 / 2555 / 11923
------------------
     c_bands:  1 eigenvalues not converged
     ethr =  9.06E-13,  avg # of iterations =  4.0
     Minimization algorithm failed to find Fermi energy: reverting to bisection
     Possible cause: smearing is larger than the electronic band-gap.

     total cpu time spent up to now is     1809.3 secs

     total energy              =  -16564.51825976 Ry
     estimated scf accuracy    <       0.00000054 Ry
[tb_dev] Currently allocated     3.05E-04 Mbytes, locked:    0 /   2
[tb_pin] Currently allocated     0.00E+00 Mbytes, locked:    0 /   0

     iteration # 20     ecut=    40.00 Ry     beta= 0.40
     Davidson diagonalization with overlap

---- Real-time Memory Report at c_bands before calling an iterative solver
          1543 MiB given to the printing process from OS
             0 MiB allocation reported by mallinfo(arena+hblkhd)
         12418 MiB available memory on the node where the printing process lives
     GPU memory used/free/total (MiB): 9368 / 2555 / 11923
------------------
     c_bands:  1 eigenvalues not converged
     ethr =  9.06E-13,  avg # of iterations =  4.4
     Minimization algorithm failed to find Fermi energy: reverting to bisection
     Possible cause: smearing is larger than the electronic band-gap.

     total cpu time spent up to now is     1880.0 secs

     total energy              =  -16564.51825977 Ry
     estimated scf accuracy    <       0.00000051 Ry
[tb_dev] Currently allocated     3.05E-04 Mbytes, locked:    0 /   2
[tb_pin] Currently allocated     0.00E+00 Mbytes, locked:    0 /   0

     iteration # 21     ecut=    40.00 Ry     beta= 0.40
     Davidson diagonalization with overlap

---- Real-time Memory Report at c_bands before calling an iterative solver
          1545 MiB given to the printing process from OS
             0 MiB allocation reported by mallinfo(arena+hblkhd)
         12421 MiB available memory on the node where the printing process lives
     GPU memory used/free/total (MiB): 9368 / 2555 / 11923
------------------
     ethr =  9.06E-13,  avg # of iterations =  2.9
     Minimization algorithm failed to find Fermi energy: reverting to bisection
     Possible cause: smearing is larger than the electronic band-gap.

     total cpu time spent up to now is     1946.7 secs

     total energy              =  -16564.51825978 Ry
     estimated scf accuracy    <       0.00000050 Ry
[tb_dev] Currently allocated     3.05E-04 Mbytes, locked:    0 /   2
[tb_pin] Currently allocated     0.00E+00 Mbytes, locked:    0 /   0

     iteration # 22     ecut=    40.00 Ry     beta= 0.40
     Davidson diagonalization with overlap

---- Real-time Memory Report at c_bands before calling an iterative solver
          1545 MiB given to the printing process from OS
             0 MiB allocation reported by mallinfo(arena+hblkhd)
         12415 MiB available memory on the node where the printing process lives
     GPU memory used/free/total (MiB): 9368 / 2555 / 11923
------------------
     ethr =  9.06E-13,  avg # of iterations =  1.2
     Minimization algorithm failed to find Fermi energy: reverting to bisection
     Possible cause: smearing is larger than the electronic band-gap.

     total cpu time spent up to now is     2006.6 secs

     total energy              =  -16564.51825979 Ry
     estimated scf accuracy    <       0.00000049 Ry
[tb_dev] Currently allocated     3.05E-04 Mbytes, locked:    0 /   2
[tb_pin] Currently allocated     0.00E+00 Mbytes, locked:    0 /   0

     iteration # 23     ecut=    40.00 Ry     beta= 0.40
     Davidson diagonalization with overlap

---- Real-time Memory Report at c_bands before calling an iterative solver
          1545 MiB given to the printing process from OS
             0 MiB allocation reported by mallinfo(arena+hblkhd)
         12451 MiB available memory on the node where the printing process lives
     GPU memory used/free/total (MiB): 9368 / 2555 / 11923
------------------
     ethr =  9.06E-13,  avg # of iterations =  2.2
     Minimization algorithm failed to find Fermi energy: reverting to bisection
     Possible cause: smearing is larger than the electronic band-gap.

     total cpu time spent up to now is     2072.6 secs

     total energy              =  -16564.51825979 Ry
     estimated scf accuracy    <       0.00000050 Ry
[tb_dev] Currently allocated     3.05E-04 Mbytes, locked:    0 /   2
[tb_pin] Currently allocated     0.00E+00 Mbytes, locked:    0 /   0

     iteration # 24     ecut=    40.00 Ry     beta= 0.40
     Davidson diagonalization with overlap

---- Real-time Memory Report at c_bands before calling an iterative solver
          1545 MiB given to the printing process from OS
             0 MiB allocation reported by mallinfo(arena+hblkhd)
         12446 MiB available memory on the node where the printing process lives
     GPU memory used/free/total (MiB): 9368 / 2555 / 11923
------------------
     ethr =  9.06E-13,  avg # of iterations =  6.2
     Minimization algorithm failed to find Fermi energy: reverting to bisection
     Possible cause: smearing is larger than the electronic band-gap.

     total cpu time spent up to now is     2148.9 secs

     total energy              =  -16564.51825977 Ry
     estimated scf accuracy    <       0.00000045 Ry
[tb_dev] Currently allocated     3.05E-04 Mbytes, locked:    0 /   2
[tb_pin] Currently allocated     0.00E+00 Mbytes, locked:    0 /   0

     iteration # 25     ecut=    40.00 Ry     beta= 0.40
     Davidson diagonalization with overlap

---- Real-time Memory Report at c_bands before calling an iterative solver
          1545 MiB given to the printing process from OS
             0 MiB allocation reported by mallinfo(arena+hblkhd)
         12446 MiB available memory on the node where the printing process lives
     GPU memory used/free/total (MiB): 9368 / 2555 / 11923
------------------
     ethr =  9.06E-13,  avg # of iterations =  7.9
     Minimization algorithm failed to find Fermi energy: reverting to bisection
     Possible cause: smearing is larger than the electronic band-gap.

     total cpu time spent up to now is     2241.3 secs

     total energy              =  -16564.51825979 Ry
     estimated scf accuracy    <       0.00000032 Ry
[tb_dev] Currently allocated     3.05E-04 Mbytes, locked:    0 /   2
[tb_pin] Currently allocated     0.00E+00 Mbytes, locked:    0 /   0

     iteration # 26     ecut=    40.00 Ry     beta= 0.40
     Davidson diagonalization with overlap

---- Real-time Memory Report at c_bands before calling an iterative solver
          1545 MiB given to the printing process from OS
             0 MiB allocation reported by mallinfo(arena+hblkhd)
         12446 MiB available memory on the node where the printing process lives
     GPU memory used/free/total (MiB): 9368 / 2555 / 11923
------------------
     ethr =  9.06E-13,  avg # of iterations =  1.0
     Minimization algorithm failed to find Fermi energy: reverting to bisection
     Possible cause: smearing is larger than the electronic band-gap.

     total cpu time spent up to now is     2299.5 secs

     total energy              =  -16564.51825968 Ry
     estimated scf accuracy    <       0.00000032 Ry
[tb_dev] Currently allocated     3.05E-04 Mbytes, locked:    0 /   2
[tb_pin] Currently allocated     0.00E+00 Mbytes, locked:    0 /   0

     iteration # 27     ecut=    40.00 Ry     beta= 0.40
     Davidson diagonalization with overlap

---- Real-time Memory Report at c_bands before calling an iterative solver
          1545 MiB given to the printing process from OS
             0 MiB allocation reported by mallinfo(arena+hblkhd)
         12442 MiB available memory on the node where the printing process lives
     GPU memory used/free/total (MiB): 9368 / 2555 / 11923
------------------
     c_bands:  2 eigenvalues not converged
     c_bands:  1 eigenvalues not converged
     ethr =  9.06E-13,  avg # of iterations = 12.1
     Minimization algorithm failed to find Fermi energy: reverting to bisection
     Possible cause: smearing is larger than the electronic band-gap.

     total cpu time spent up to now is     2452.3 secs

     total energy              =  -16564.51825975 Ry
     estimated scf accuracy    <          2.4E-09 Ry
[tb_dev] Currently allocated     3.05E-04 Mbytes, locked:    0 /   2
[tb_pin] Currently allocated     0.00E+00 Mbytes, locked:    0 /   0

     iteration # 28     ecut=    40.00 Ry     beta= 0.40
     Davidson diagonalization with overlap

---- Real-time Memory Report at c_bands before calling an iterative solver
          1545 MiB given to the printing process from OS
             0 MiB allocation reported by mallinfo(arena+hblkhd)
         12434 MiB available memory on the node where the printing process lives
     GPU memory used/free/total (MiB): 9368 / 2555 / 11923
------------------
     ethr =  6.82E-13,  avg # of iterations =  6.7
     Minimization algorithm failed to find Fermi energy: reverting to bisection
     Possible cause: smearing is larger than the electronic band-gap.

     total cpu time spent up to now is     2534.7 secs

     End of self-consistent calculation

          k = 0.0000 0.0000 0.0000 ( 57747 PWs)   bands (ev):

   -18.2723 -18.2721 -18.2721 -18.2721 -18.2718 -18.2718 -18.2718 -18.2715
   -13.4508 -13.4504 -13.4504 -13.4502 -13.4502 -13.4434 -13.4431 -13.4431
   -13.4359 -13.4356 -13.4356 -13.4284 -13.4280 -13.4280 -13.4278 -13.4278
   -13.3844 -13.3844 -13.3844 -13.3844 -13.3844 -13.3844 -13.3842 -13.3842
   -13.3842 -13.3839 -13.3839 -13.3839 -13.3838 -13.3838 -13.3838 -13.3837
   -13.3837 -13.3837 -13.3830 -13.3830 -13.3830 -13.3826 -13.3826 -13.3826
    -9.1946  -8.9813  -8.9813  -8.9811  -8.7164  -8.7164  -8.7164  -8.6569
    -8.6569  -8.6569  -8.6567  -8.6567  -8.6567  -8.6561  -8.6561  -8.6561
    -8.6502  -8.6502  -8.6502  -8.3972  -8.3972  -8.3948  -8.3947  -8.3947
    -5.3702  -5.0712  -5.0712  -5.0712  -5.0552  -5.0552  -5.0552  -5.0546
    -5.0546  -5.0546  -5.0546  -5.0546  -5.0546  -5.0502  -5.0502  -5.0502
    -5.0502  -5.0502  -5.0502  -5.0460  -5.0460  -5.0460  -5.0447  -5.0447
    -5.0446  -4.7834  -4.7834  -4.7829  -4.2193  -4.2193  -4.2188  -3.6386
    -0.4485  -0.4485  -0.4485  -0.3388  -0.3388  -0.3388  -0.3385  -0.3385
    -0.3385  -0.1888  -0.1888  -0.1888   0.7672   0.7672   0.7672   0.9159
     0.9159   0.9159   1.0816   1.0816   1.0816   1.4169   1.4169   1.4169
     1.4169   1.4169   1.4169   1.5069   1.5069   1.5069   1.5069   1.5069
     1.5069   1.5629   1.5629   1.5629   1.5630   1.5630   1.5630   1.6231
     1.6231   1.6231   1.7158   1.7160   1.7160   1.7244   1.7244   1.7660
     1.7660   1.7660   1.8007   1.8007   1.8007   1.8007   1.8007   1.8007
     1.9053   1.9053   1.9053   2.2528   2.2528   2.2529   2.3008   2.3008
     2.3008   2.3143   2.3143   2.3143   2.7479   2.7479   2.7481   3.2433
     4.5971   4.5971   4.5971   5.0492   5.0492   5.0496   5.0496   5.0496

     occupation numbers 
     1.0000   1.0000   1.0000   1.0000   1.0000   1.0000   1.0000   1.0000
     1.0000   1.0000   1.0000   1.0000   1.0000   1.0000   1.0000   1.0000
     1.0000   1.0000   1.0000   1.0000   1.0000   1.0000   1.0000   1.0000
     1.0000   1.0000   1.0000   1.0000   1.0000   1.0000   1.0000   1.0000
     1.0000   1.0000   1.0000   1.0000   1.0000   1.0000   1.0000   1.0000
     1.0000   1.0000   1.0000   1.0000   1.0000   1.0000   1.0000   1.0000
     1.0000   1.0000   1.0000   1.0000   1.0000   1.0000   1.0000   1.0000
     1.0000   1.0000   1.0000   1.0000   1.0000   1.0000   1.0000   1.0000
     1.0000   1.0000   1.0000   1.0000   1.0000   1.0000   1.0000   1.0000
     1.0000   1.0000   1.0000   1.0000   1.0000   1.0000   1.0000   1.0000
     1.0000   1.0000   1.0000   1.0000   1.0000   1.0000   1.0000   1.0000
     1.0000   1.0000   1.0000   1.0000   1.0000   1.0000   1.0000   1.0000
     1.0000   1.0000   1.0000   1.0000   1.0000   1.0000   1.0000   1.0001
     1.0436   1.0436   1.0436   1.0486   1.0486   1.0486   1.0486   1.0486
     1.0486   1.0556   1.0556   1.0556   1.0827   1.0827   1.0827   1.0792
     1.0792   1.0792   1.0711   1.0711   1.0711   1.0384   1.0384   1.0384
     1.0384   1.0384   1.0384   1.0255   1.0255   1.0255   1.0255   1.0255
     1.0255   1.0165   1.0165   1.0165   1.0165   1.0165   1.0165   1.0061
     1.0061   1.0061   0.9884   0.9883   0.9883   0.9866   0.9866   0.9780
     0.9780   0.9780   0.9704   0.9704   0.9704   0.9704   0.9704   0.9704
     0.9461   0.9461   0.9461   0.8486   0.8486   0.8486   0.8334   0.8334
     0.8334   0.8291   0.8291   0.8291   0.6768   0.6768   0.6767   0.4913
     0.1201   0.1201   0.1201   0.0623   0.0623   0.0623   0.0623   0.0623

          k = 0.0000 0.0000 0.2500 ( 57648 PWs)   bands (ev):

   -18.2723 -18.2721 -18.2720 -18.2720 -18.2718 -18.2718 -18.2717 -18.2716
   -13.4505 -13.4504 -13.4490 -13.4488 -13.4483 -13.4438 -13.4437 -13.4409
   -13.4379 -13.4352 -13.4350 -13.4302 -13.4298 -13.4294 -13.4280 -13.4278
   -13.3844 -13.3844 -13.3844 -13.3844 -13.3843 -13.3843 -13.3842 -13.3841
   -13.3841 -13.3839 -13.3839 -13.3839 -13.3838 -13.3838 -13.3838 -13.3837
   -13.3837 -13.3837 -13.3830 -13.3830 -13.3830 -13.3826 -13.3826 -13.3826
    -9.1731  -9.0299  -8.9598  -8.9597  -8.8045  -8.8044  -8.7073  -8.6605
    -8.6567  -8.6567  -8.6562  -8.6562  -8.6558  -8.6558  -8.6511  -8.6511
    -8.6006  -8.5690  -8.5689  -8.4252  -8.4156  -8.4155  -8.3968  -8.3951
    -5.2944  -5.0688  -5.0688  -5.0675  -5.0570  -5.0570  -5.0545  -5.0545
    -5.0542  -5.0541  -5.0539  -5.0539  -5.0532  -5.0509  -5.0509  -5.0508
    -5.0508  -5.0498  -5.0496  -5.0496  -5.0467  -5.0466  -5.0466  -5.0466
    -5.0456  -4.8820  -4.7134  -4.7130  -4.3189  -4.3186  -4.1527  -3.7487
    -0.4336  -0.4336  -0.3560  -0.3560  -0.3189  -0.3189  -0.2133  -0.2133
    -0.1984  -0.0974  -0.0972   0.0527   0.7884   0.8064   0.8064   0.8935
     0.9230   0.9517   0.9517   1.0305   1.0305   1.1423   1.1424   1.2285
     1.2285   1.3888   1.4106   1.4106   1.4446   1.4446   1.5150   1.5150
     1.5517   1.5517   1.5546   1.5546   1.5977   1.5977   1.6430   1.7171
     1.7232   1.7337   1.7337   1.7380   1.7381   1.7433   1.7433   1.7440
     1.7590   1.7590   1.7910   1.7910   1.8112   1.8112   1.8210   1.8210
     1.8814   1.8828   1.8828   2.0301   2.2254   2.2254   2.2321   2.2321
     2.2730   2.2731   2.3028   2.3123   2.5403   2.5404   2.7643   2.9980
     4.6727   4.6727   4.9912   4.9912   5.1077   5.1077   5.2798   5.3539

     occupation numbers 
     1.0000   1.0000   1.0000   1.0000   1.0000   1.0000   1.0000   1.0000
     1.0000   1.0000   1.0000   1.0000   1.0000   1.0000   1.0000   1.0000
     1.0000   1.0000   1.0000   1.0000   1.0000   1.0000   1.0000   1.0000
     1.0000   1.0000   1.0000   1.0000   1.0000   1.0000   1.0000   1.0000
     1.0000   1.0000   1.0000   1.0000   1.0000   1.0000   1.0000   1.0000
     1.0000   1.0000   1.0000   1.0000   1.0000   1.0000   1.0000   1.0000
     1.0000   1.0000   1.0000   1.0000   1.0000   1.0000   1.0000   1.0000
     1.0000   1.0000   1.0000   1.0000   1.0000   1.0000   1.0000   1.0000
     1.0000   1.0000   1.0000   1.0000   1.0000   1.0000   1.0000   1.0000
     1.0000   1.0000   1.0000   1.0000   1.0000   1.0000   1.0000   1.0000
     1.0000   1.0000   1.0000   1.0000   1.0000   1.0000   1.0000   1.0000
     1.0000   1.0000   1.0000   1.0000   1.0000   1.0000   1.0000   1.0000
     1.0000   1.0000   1.0000   1.0000   1.0000   1.0000   1.0000   1.0001
     1.0443   1.0443   1.0478   1.0478   1.0495   1.0495   1.0545   1.0545
     1.0552   1.0599   1.0599   1.0667   1.0824   1.0821   1.0821   1.0800
     1.0790   1.0779   1.0779   1.0741   1.0741   1.0669   1.0669   1.0596
     1.0596   1.0420   1.0392   1.0392   1.0346   1.0346   1.0242   1.0242
     1.0184   1.0184   1.0179   1.0179   1.0106   1.0106   1.0024   0.9881
     0.9869   0.9847   0.9847   0.9838   0.9838   0.9827   0.9827   0.9826
     0.9794   0.9794   0.9726   0.9726   0.9681   0.9681   0.9659   0.9659
     0.9519   0.9515   0.9515   0.9139   0.8572   0.8572   0.8551   0.8551
     0.8423   0.8423   0.8328   0.8297   0.7522   0.7522   0.6706   0.5828
     0.1083   0.1083   0.0681   0.0681   0.0568   0.0568   0.0430   0.0379

          k = 0.0000 0.0000-0.5000 ( 57624 PWs)   bands (ev):

   -18.2722 -18.2722 -18.2719 -18.2719 -18.2719 -18.2719 -18.2717 -18.2717
   -13.4505 -13.4504 -13.4459 -13.4458 -13.4457 -13.4457 -13.4432 -13.4430
   -13.4357 -13.4356 -13.4330 -13.4329 -13.4329 -13.4327 -13.4281 -13.4279
   -13.3844 -13.3844 -13.3843 -13.3843 -13.3843 -13.3843 -13.3842 -13.3842
   -13.3841 -13.3839 -13.3839 -13.3838 -13.3838 -13.3838 -13.3838 -13.3838
   -13.3838 -13.3837 -13.3830 -13.3830 -13.3830 -13.3826 -13.3826 -13.3826
    -9.1124  -9.1123  -8.8980  -8.8979  -8.8979  -8.8978  -8.6846  -8.6846
    -8.6565  -8.6565  -8.6565  -8.6565  -8.6535  -8.6535  -8.6535  -8.6535
    -8.5018  -8.5018  -8.4763  -8.4762  -8.4762  -8.4762  -8.3960  -8.3959
    -5.0994  -5.0993  -5.0629  -5.0629  -5.0629  -5.0629  -5.0587  -5.0587
    -5.0527  -5.0527  -5.0527  -5.0527  -5.0524  -5.0524  -5.0524  -5.0524
    -5.0510  -5.0510  -5.0510  -5.0510  -5.0489  -5.0489  -5.0481  -5.0481
    -5.0481  -5.0481  -4.5305  -4.5304  -4.5301  -4.5301  -3.9712  -3.9711
    -0.3961  -0.3961  -0.3960  -0.3960  -0.2685  -0.2685  -0.2684  -0.2684
     0.3893   0.3894   0.5005   0.5005   0.5007   0.5008   0.6717   0.6717
     0.8403   0.8403   0.9107   0.9107   0.9107   0.9107   1.0576   1.0576
     1.0576   1.0576   1.4050   1.4050   1.4050   1.4050   1.5347   1.5347
     1.5347   1.5347   1.6569   1.6569   1.6569   1.6569   1.6764   1.6764
     1.6764   1.6764   1.6924   1.6924   1.7201   1.7202   1.7672   1.7672
     1.7672   1.7672   1.8411   1.8411   1.8412   1.8412   1.8663   1.8663
     2.0048   2.0048   2.0048   2.0048   2.0531   2.0531   2.0531   2.0531
     2.3075   2.3075   2.3480   2.3480   2.3480   2.3481   2.8259   2.8259
     4.8404   4.8404   4.8405   4.8405   5.2387   5.2387   5.2388   5.2388

     occupation numbers 
     1.0000   1.0000   1.0000   1.0000   1.0000   1.0000   1.0000   1.0000
     1.0000   1.0000   1.0000   1.0000   1.0000   1.0000   1.0000   1.0000
     1.0000   1.0000   1.0000   1.0000   1.0000   1.0000   1.0000   1.0000
     1.0000   1.0000   1.0000   1.0000   1.0000   1.0000   1.0000   1.0000
     1.0000   1.0000   1.0000   1.0000   1.0000   1.0000   1.0000   1.0000
     1.0000   1.0000   1.0000   1.0000   1.0000   1.0000   1.0000   1.0000
     1.0000   1.0000   1.0000   1.0000   1.0000   1.0000   1.0000   1.0000
     1.0000   1.0000   1.0000   1.0000   1.0000   1.0000   1.0000   1.0000
     1.0000   1.0000   1.0000   1.0000   1.0000   1.0000   1.0000   1.0000
     1.0000   1.0000   1.0000   1.0000   1.0000   1.0000   1.0000   1.0000
     1.0000   1.0000   1.0000   1.0000   1.0000   1.0000   1.0000   1.0000
     1.0000   1.0000   1.0000   1.0000   1.0000   1.0000   1.0000   1.0000
     1.0000   1.0000   1.0000   1.0000   1.0000   1.0000   1.0000   1.0000
     1.0460   1.0460   1.0460   1.0460   1.0519   1.0519   1.0519   1.0519
     1.0792   1.0792   1.0817   1.0817   1.0817   1.0817   1.0833   1.0833
     1.0814   1.0814   1.0794   1.0794   1.0794   1.0794   1.0726   1.0726
     1.0726   1.0726   1.0400   1.0400   1.0400   1.0400   1.0211   1.0211
     1.0211   1.0211   0.9999   0.9999   0.9999   0.9999   0.9961   0.9961
     0.9961   0.9961   0.9930   0.9930   0.9875   0.9875   0.9777   0.9777
     0.9777   0.9777   0.9613   0.9613   0.9613   0.9613   0.9554   0.9554
     0.9207   0.9207   0.9207   0.9207   0.9076   0.9076   0.9076   0.9076
     0.8312   0.8312   0.8181   0.8180   0.8180   0.8180   0.6477   0.6476
     0.0854   0.0854   0.0854   0.0854   0.0460   0.0460   0.0460   0.0460

          k = 0.0000 0.2500 0.2500 ( 57594 PWs)   bands (ev):

   -18.2723 -18.2721 -18.2721 -18.2720 -18.2719 -18.2718 -18.2718 -18.2716
   -13.4494 -13.4491 -13.4486 -13.4473 -13.4471 -13.4442 -13.4417 -13.4414
   -13.4374 -13.4371 -13.4346 -13.4314 -13.4313 -13.4298 -13.4294 -13.4290
   -13.3843 -13.3843 -13.3843 -13.3843 -13.3843 -13.3843 -13.3841 -13.3841
   -13.3841 -13.3839 -13.3839 -13.3838 -13.3838 -13.3838 -13.3838 -13.3838
   -13.3837 -13.3837 -13.3830 -13.3830 -13.3830 -13.3826 -13.3826 -13.3826
    -9.1517  -9.0090  -9.0089  -8.9392  -8.8642  -8.7915  -8.7914  -8.7065
    -8.6562  -8.6560  -8.6558  -8.6520  -8.6208  -8.6146  -8.6012  -8.6012
    -8.5733  -8.5733  -8.5442  -8.4374  -8.4342  -8.4159  -8.4158  -8.4112
    -5.2207  -5.0681  -5.0658  -5.0630  -5.0569  -5.0569  -5.0569  -5.0569
    -5.0548  -5.0544  -5.0538  -5.0532  -5.0523  -5.0518  -5.0518  -5.0510
    -5.0503  -5.0503  -5.0490  -5.0490  -5.0488  -5.0481  -5.0473  -5.0466
    -5.0466  -4.8113  -4.8109  -4.6448  -4.4172  -4.2528  -4.2525  -3.8553
    -0.4181  -0.3373  -0.3370  -0.2446  -0.2365  -0.1255  -0.1235  -0.1172
    -0.1172  -0.0326   0.0253   0.0253   0.8241   0.8241   0.8257   0.9006
     0.9130   0.9130   0.9620   0.9708   1.0035   1.0232   1.1107   1.1108
     1.2285   1.2285   1.2674   1.3147   1.3167   1.4404   1.4405   1.5046
     1.5046   1.5331   1.5418   1.5763   1.5892   1.5892   1.6359   1.6543
     1.6780   1.7246   1.7322   1.7322   1.7479   1.7705   1.7705   1.7751
     1.7752   1.7824   1.8350   1.8405   1.8405   1.8513   1.8513   1.8559
     1.8590   1.8784   1.9255   2.0600   2.0600   2.1873   2.1940   2.1957
     2.2345   2.2345   2.2641   2.2868   2.3035   2.5479   2.5481   2.7462
     4.7449   5.0514   5.0517   5.2752   5.3086   5.3841   5.5836   5.5836

     occupation numbers 
     1.0000   1.0000   1.0000   1.0000   1.0000   1.0000   1.0000   1.0000
     1.0000   1.0000   1.0000   1.0000   1.0000   1.0000   1.0000   1.0000
     1.0000   1.0000   1.0000   1.0000   1.0000   1.0000   1.0000   1.0000
     1.0000   1.0000   1.0000   1.0000   1.0000   1.0000   1.0000   1.0000
     1.0000   1.0000   1.0000   1.0000   1.0000   1.0000   1.0000   1.0000
     1.0000   1.0000   1.0000   1.0000   1.0000   1.0000   1.0000   1.0000
     1.0000   1.0000   1.0000   1.0000   1.0000   1.0000   1.0000   1.0000
     1.0000   1.0000   1.0000   1.0000   1.0000   1.0000   1.0000   1.0000
     1.0000   1.0000   1.0000   1.0000   1.0000   1.0000   1.0000   1.0000
     1.0000   1.0000   1.0000   1.0000   1.0000   1.0000   1.0000   1.0000
     1.0000   1.0000   1.0000   1.0000   1.0000   1.0000   1.0000   1.0000
     1.0000   1.0000   1.0000   1.0000   1.0000   1.0000   1.0000   1.0000
     1.0000   1.0000   1.0000   1.0000   1.0000   1.0000   1.0000   1.0000
     1.0450   1.0487   1.0487   1.0530   1.0534   1.0586   1.0587   1.0590
     1.0590   1.0629   1.0655   1.0655   1.0818   1.0818   1.0817   1.0797
     1.0793   1.0793   1.0774   1.0771   1.0755   1.0745   1.0692   1.0692
     1.0596   1.0596   1.0559   1.0509   1.0506   1.0352   1.0352   1.0258
     1.0258   1.0214   1.0200   1.0143   1.0121   1.0121   1.0038   1.0003
     0.9958   0.9866   0.9850   0.9850   0.9818   0.9770   0.9770   0.9760
     0.9760   0.9744   0.9627   0.9615   0.9615   0.9590   0.9590   0.9579
     0.9572   0.9526   0.9411   0.9057   0.9057   0.8688   0.8668   0.8663
     0.8543   0.8543   0.8451   0.8379   0.8326   0.7495   0.7495   0.6774
     0.0979   0.0621   0.0621   0.0433   0.0410   0.0360   0.0253   0.0253

          k = 0.0000 0.2500-0.5000 ( 57722 PWs)   bands (ev):

   -18.2722 -18.2722 -18.2720 -18.2720 -18.2719 -18.2719 -18.2717 -18.2717
   -13.4491 -13.4489 -13.4460 -13.4459 -13.4439 -13.4438 -13.4425 -13.4423
   -13.4364 -13.4363 -13.4349 -13.4347 -13.4328 -13.4326 -13.4296 -13.4294
   -13.3843 -13.3843 -13.3843 -13.3843 -13.3843 -13.3842 -13.3842 -13.3841
   -13.3841 -13.3839 -13.3839 -13.3839 -13.3839 -13.3838 -13.3838 -13.3838
   -13.3838 -13.3837 -13.3831 -13.3830 -13.3830 -13.3827 -13.3826 -13.3826
    -9.0914  -9.0913  -8.9495  -8.9495  -8.8802  -8.8802  -8.7558  -8.7557
    -8.6561  -8.6560  -8.6540  -8.6539  -8.6043  -8.6043  -8.5877  -8.5876
    -8.5056  -8.5055  -8.4887  -8.4887  -8.4736  -8.4735  -8.4160  -8.4160
    -5.0681  -5.0681  -5.0632  -5.0632  -5.0557  -5.0557  -5.0553  -5.0553
    -5.0537  -5.0537  -5.0535  -5.0535  -5.0535  -5.0535  -5.0520  -5.0520
    -5.0492  -5.0492  -5.0488  -5.0488  -5.0479  -5.0479  -5.0479  -5.0479
    -5.0207  -5.0206  -4.6277  -4.6275  -4.4639  -4.4638  -4.0732  -4.0731
    -0.3790  -0.3789  -0.2890  -0.2889  -0.1639  -0.1638  -0.0363  -0.0362
     0.4133   0.4133   0.4626   0.4626   0.5264   0.5264   0.6264   0.6264
     0.8667   0.8667   0.8802   0.8803   0.9158   0.9158   1.0440   1.0440
     1.0583   1.0584   1.2414   1.2414   1.3211   1.3211   1.4757   1.4757
     1.5042   1.5042   1.5308   1.5308   1.5684   1.5685   1.6653   1.6653
     1.6716   1.6716   1.7246   1.7246   1.7683   1.7683   1.7720   1.7720
     1.8050   1.8050   1.8294   1.8294   1.8865   1.8865   1.9405   1.9405
     1.9933   1.9933   2.0167   2.0167   2.0442   2.0442   2.0623   2.0623
     2.1373   2.1373   2.2417   2.2417   2.3533   2.3534   2.5849   2.5850
     4.9060   4.9061   5.1874   5.1875   5.4552   5.4553   5.7957   5.7958

     occupation numbers 
     1.0000   1.0000   1.0000   1.0000   1.0000   1.0000   1.0000   1.0000
[...]
     atom   38 type  2   force =     0.00000000    0.00000000    0.00000000
     atom   39 type  2   force =     0.00000000    0.00000000    0.00000000
     atom   40 type  2   force =     0.00000000   -0.00000000    0.00000000
     The local contribution  to forces
     atom    1 type  1   force =    -0.00000179   -0.00000179   -0.00000179
     atom    2 type  1   force =     0.00000179   -0.00000179    0.00000179
     atom    3 type  1   force =    -0.00000179    0.00000179    0.00000179
     atom    4 type  1   force =     0.00000179    0.00000179   -0.00000179
     atom    5 type  1   force =    -0.00000179   -0.00000179    0.00000179
     atom    6 type  1   force =    -0.00000179    0.00000179   -0.00000179
     atom    7 type  1   force =     0.00000179   -0.00000179   -0.00000179
     atom    8 type  1   force =     0.00000179    0.00000179    0.00000179
     atom    9 type  3   force =     0.00000000    0.00000000    0.00000000
     atom   10 type  3   force =     0.00000000    0.00000000    0.00000000
     atom   11 type  3   force =     0.00000000    0.00000000    0.00000000
     atom   12 type  3   force =     0.00000000    0.00000000    0.00000000
     atom   13 type  3   force =     0.00000000    0.00000000    0.00000000
     atom   14 type  3   force =     0.00000000    0.00000000    0.00000000
     atom   15 type  3   force =     0.00000000    0.00000000    0.00000000
     atom   16 type  3   force =     0.00000000    0.00000000    0.00000000
     atom   17 type  2   force =    -0.00000000    0.00000015   -0.00000000
     atom   18 type  2   force =    -0.00000000   -0.00000015   -0.00000000
     atom   19 type  2   force =     0.00000015    0.00000000   -0.00000000
     atom   20 type  2   force =    -0.00000015    0.00000000   -0.00000000
     atom   21 type  2   force =     0.00000000    0.00000000   -0.00000015
     atom   22 type  2   force =     0.00000000    0.00000000    0.00000015
     atom   23 type  2   force =     0.00000000    0.00000000    0.00000446
     atom   24 type  2   force =     0.00000000    0.00000000   -0.00000446
     atom   25 type  2   force =     0.00000446    0.00000000   -0.00000000
     atom   26 type  2   force =    -0.00000446    0.00000000   -0.00000000
     atom   27 type  2   force =     0.00000000    0.00000446    0.00000000
     atom   28 type  2   force =    -0.00000000   -0.00000446    0.00000000
     atom   29 type  2   force =     0.00000000    0.00000000   -0.00000446
     atom   30 type  2   force =     0.00000000    0.00000000    0.00000446
     atom   31 type  2   force =     0.00000000    0.00000446    0.00000000
     atom   32 type  2   force =     0.00000000   -0.00000446    0.00000000
     atom   33 type  2   force =     0.00000446    0.00000000    0.00000000
     atom   34 type  2   force =    -0.00000446    0.00000000    0.00000000
     atom   35 type  2   force =    -0.00001236    0.00000000    0.00000000
     atom   36 type  2   force =     0.00001236    0.00000000    0.00000000
     atom   37 type  2   force =     0.00000000    0.00000000    0.00001236
     atom   38 type  2   force =     0.00000000    0.00000000   -0.00001236
     atom   39 type  2   force =     0.00000000   -0.00001236    0.00000000
     atom   40 type  2   force =     0.00000000    0.00001236    0.00000000
     The core correction contribution to forces
     atom    1 type  1   force =    -0.00000166   -0.00000166   -0.00000166
     atom    2 type  1   force =     0.00000166   -0.00000166    0.00000166
     atom    3 type  1   force =    -0.00000166    0.00000166    0.00000166
     atom    4 type  1   force =     0.00000166    0.00000166   -0.00000166
     atom    5 type  1   force =    -0.00000166   -0.00000166    0.00000166
     atom    6 type  1   force =    -0.00000166    0.00000166   -0.00000166
     atom    7 type  1   force =     0.00000166   -0.00000166   -0.00000166
     atom    8 type  1   force =     0.00000166    0.00000166    0.00000166
     atom    9 type  3   force =     0.00000000    0.00000000    0.00000000
     atom   10 type  3   force =     0.00000000    0.00000000    0.00000000
     atom   11 type  3   force =     0.00000000    0.00000000    0.00000000
     atom   12 type  3   force =     0.00000000    0.00000000    0.00000000
     atom   13 type  3   force =     0.00000000    0.00000000    0.00000000
     atom   14 type  3   force =     0.00000000    0.00000000    0.00000000
     atom   15 type  3   force =     0.00000000    0.00000000    0.00000000
     atom   16 type  3   force =     0.00000000    0.00000000    0.00000000
     atom   17 type  2   force =     0.00000000    0.00000137    0.00000000
     atom   18 type  2   force =     0.00000000   -0.00000137    0.00000000
     atom   19 type  2   force =     0.00000137    0.00000000    0.00000000
     atom   20 type  2   force =    -0.00000137    0.00000000    0.00000000
     atom   21 type  2   force =     0.00000000    0.00000000   -0.00000137
     atom   22 type  2   force =     0.00000000    0.00000000    0.00000137
     atom   23 type  2   force =     0.00000000    0.00000000   -0.00000181
     atom   24 type  2   force =     0.00000000    0.00000000    0.00000181
     atom   25 type  2   force =    -0.00000181    0.00000000    0.00000000
     atom   26 type  2   force =     0.00000181   -0.00000000    0.00000000
     atom   27 type  2   force =     0.00000000   -0.00000181   -0.00000000
     atom   28 type  2   force =     0.00000000    0.00000181   -0.00000000
     atom   29 type  2   force =     0.00000000    0.00000000    0.00000181
     atom   30 type  2   force =     0.00000000    0.00000000   -0.00000181
     atom   31 type  2   force =     0.00000000   -0.00000181    0.00000000
     atom   32 type  2   force =     0.00000000    0.00000181    0.00000000
     atom   33 type  2   force =    -0.00000181    0.00000000    0.00000000
     atom   34 type  2   force =     0.00000181    0.00000000   -0.00000000
     atom   35 type  2   force =    -0.00000172    0.00000000   -0.00000000
     atom   36 type  2   force =     0.00000172   -0.00000000   -0.00000000
     atom   37 type  2   force =    -0.00000000   -0.00000000    0.00000172
     atom   38 type  2   force =    -0.00000000    0.00000000   -0.00000172
     atom   39 type  2   force =    -0.00000000   -0.00000172   -0.00000000
     atom   40 type  2   force =    -0.00000000    0.00000172   -0.00000000
     The Hubbard contrib.    to forces
     atom    1 type  1   force =     0.00000000    0.00000000    0.00000000
     atom    2 type  1   force =     0.00000000    0.00000000    0.00000000
     atom    3 type  1   force =     0.00000000    0.00000000    0.00000000
     atom    4 type  1   force =     0.00000000    0.00000000    0.00000000
     atom    5 type  1   force =     0.00000000    0.00000000    0.00000000
     atom    6 type  1   force =     0.00000000    0.00000000    0.00000000
     atom    7 type  1   force =     0.00000000    0.00000000    0.00000000
     atom    8 type  1   force =     0.00000000    0.00000000    0.00000000
     atom    9 type  3   force =     0.00000000    0.00000000    0.00000000
     atom   10 type  3   force =     0.00000000    0.00000000    0.00000000
     atom   11 type  3   force =     0.00000000    0.00000000    0.00000000
     atom   12 type  3   force =     0.00000000    0.00000000    0.00000000
     atom   13 type  3   force =     0.00000000    0.00000000    0.00000000
     atom   14 type  3   force =     0.00000000    0.00000000    0.00000000
     atom   15 type  3   force =     0.00000000    0.00000000    0.00000000
     atom   16 type  3   force =     0.00000000    0.00000000    0.00000000
     atom   17 type  2   force =     0.00000000    0.00000000    0.00000000
     atom   18 type  2   force =     0.00000000    0.00000000    0.00000000
     atom   19 type  2   force =     0.00000000    0.00000000    0.00000000
     atom   20 type  2   force =     0.00000000    0.00000000    0.00000000
     atom   21 type  2   force =     0.00000000    0.00000000    0.00000000
     atom   22 type  2   force =     0.00000000    0.00000000    0.00000000
     atom   23 type  2   force =     0.00000000    0.00000000    0.00000000
     atom   24 type  2   force =     0.00000000    0.00000000    0.00000000
     atom   25 type  2   force =     0.00000000    0.00000000    0.00000000
     atom   26 type  2   force =     0.00000000    0.00000000    0.00000000
     atom   27 type  2   force =     0.00000000    0.00000000    0.00000000
     atom   28 type  2   force =     0.00000000    0.00000000    0.00000000
     atom   29 type  2   force =     0.00000000    0.00000000    0.00000000
     atom   30 type  2   force =     0.00000000    0.00000000    0.00000000
     atom   31 type  2   force =     0.00000000    0.00000000    0.00000000
     atom   32 type  2   force =     0.00000000    0.00000000    0.00000000
     atom   33 type  2   force =     0.00000000    0.00000000    0.00000000
     atom   34 type  2   force =     0.00000000    0.00000000    0.00000000
     atom   35 type  2   force =     0.00000000    0.00000000    0.00000000
     atom   36 type  2   force =     0.00000000    0.00000000    0.00000000
     atom   37 type  2   force =     0.00000000    0.00000000    0.00000000
     atom   38 type  2   force =     0.00000000    0.00000000    0.00000000
     atom   39 type  2   force =     0.00000000    0.00000000    0.00000000
     atom   40 type  2   force =     0.00000000    0.00000000    0.00000000
     The SCF correction term to forces
     atom    1 type  1   force =     0.00000122    0.00000122    0.00000122
     atom    2 type  1   force =    -0.00000122    0.00000122   -0.00000122
     atom    3 type  1   force =     0.00000122   -0.00000122   -0.00000122
     atom    4 type  1   force =    -0.00000122   -0.00000122    0.00000122
     atom    5 type  1   force =     0.00000122    0.00000122   -0.00000122
     atom    6 type  1   force =     0.00000122   -0.00000122    0.00000122
     atom    7 type  1   force =    -0.00000122    0.00000122    0.00000122
     atom    8 type  1   force =    -0.00000122   -0.00000122   -0.00000122
     atom    9 type  3   force =     0.00000000   -0.00000000   -0.00000000
     atom   10 type  3   force =     0.00000000   -0.00000000    0.00000000
     atom   11 type  3   force =     0.00000000   -0.00000000    0.00000000
     atom   12 type  3   force =     0.00000000   -0.00000000   -0.00000000
     atom   13 type  3   force =    -0.00000000    0.00000000   -0.00000000
     atom   14 type  3   force =    -0.00000000   -0.00000000   -0.00000000
     atom   15 type  3   force =    -0.00000000   -0.00000000   -0.00000000
     atom   16 type  3   force =    -0.00000000   -0.00000000   -0.00000000
     atom   17 type  2   force =     0.00000000   -0.00000589   -0.00000000
     atom   18 type  2   force =     0.00000000    0.00000589   -0.00000000
     atom   19 type  2   force =    -0.00000589   -0.00000000   -0.00000000
     atom   20 type  2   force =     0.00000589    0.00000000   -0.00000000
     atom   21 type  2   force =    -0.00000000   -0.00000000    0.00000589
     atom   22 type  2   force =     0.00000000   -0.00000000   -0.00000589
     atom   23 type  2   force =     0.00000000   -0.00000000   -0.00000674
     atom   24 type  2   force =     0.00000000   -0.00000000    0.00000674
     atom   25 type  2   force =    -0.00000674   -0.00000000   -0.00000000
     atom   26 type  2   force =     0.00000674   -0.00000000   -0.00000000
     atom   27 type  2   force =     0.00000000   -0.00000674    0.00000000
     atom   28 type  2   force =     0.00000000    0.00000674   -0.00000000
     atom   29 type  2   force =     0.00000000    0.00000000    0.00000674
     atom   30 type  2   force =    -0.00000000    0.00000000   -0.00000674
     atom   31 type  2   force =     0.00000000   -0.00000674   -0.00000000
     atom   32 type  2   force =     0.00000000    0.00000674   -0.00000000
     atom   33 type  2   force =    -0.00000674   -0.00000000   -0.00000000
     atom   34 type  2   force =     0.00000674   -0.00000000   -0.00000000
     atom   35 type  2   force =     0.00000520   -0.00000000    0.00000000
     atom   36 type  2   force =    -0.00000520   -0.00000000    0.00000000
     atom   37 type  2   force =     0.00000000    0.00000000   -0.00000520
     atom   38 type  2   force =     0.00000000   -0.00000000    0.00000520
     atom   39 type  2   force =     0.00000000    0.00000520    0.00000000
     atom   40 type  2   force =     0.00000000   -0.00000520   -0.00000000

     Total force =     0.000030     Total SCF correction =     0.000031
     SCF correction compared to forces is large: reduce conv_thr to get better values


     Computing stress (Cartesian axis) and pressure

          total   stress  (Ry/bohr**3)                   (kbar)     P=       -2.59
  -0.00001763   0.00000000   0.00000000           -2.59        0.00        0.00
   0.00000000  -0.00001763   0.00000000            0.00       -2.59        0.00
   0.00000000   0.00000000  -0.00001763            0.00        0.00       -2.59

     kinetic stress (kbar)   3585.07      0.00      0.00
                                0.00   3585.07      0.00
                                0.00      0.00   3585.07

     local   stress (kbar)   -305.01     -0.00     -0.00
                               -0.00   -305.01      0.00
                               -0.00      0.00   -305.01

     nonloc. stress (kbar)    931.77      0.00      0.00
                                0.00    931.77      0.00
                                0.00      0.00    931.77

     hartree stress (kbar)   1966.87     -0.00     -0.00
                               -0.00   1966.87     -0.00
                               -0.00     -0.00   1966.87

     exc-cor stress (kbar)  12474.03      0.00      0.00
                                0.00  12474.03      0.00
                                0.00      0.00  12474.03

     corecor stress (kbar) -14135.18      0.00     -0.00
                                0.00 -14135.18     -0.00
                               -0.00     -0.00 -14135.18

     ewald   stress (kbar)  -4520.15      0.00     -0.00
                                0.00  -4520.15      0.00
                               -0.00      0.00  -4520.15

     hubbard stress (kbar)      0.00      0.00      0.00
                                0.00      0.00      0.00
                                0.00      0.00      0.00

     DFT-D   stress (kbar)      0.00      0.00      0.00
                                0.00      0.00      0.00
                                0.00      0.00      0.00

     XDM     stress (kbar)      0.00      0.00      0.00
                                0.00      0.00      0.00
                                0.00      0.00      0.00

     dft-nl  stress (kbar)      0.00      0.00      0.00
                                0.00      0.00      0.00
                                0.00      0.00      0.00

     TS-vdW  stress (kbar)      0.00      0.00      0.00
                                0.00      0.00      0.00
                                0.00      0.00      0.00

     MDB     stress (kbar)      0.00      0.00      0.00
                                0.00      0.00      0.00
                                0.00      0.00      0.00

     3D-RISM stress (kbar)      0.00      0.00      0.00
                                0.00      0.00      0.00
                                0.00      0.00      0.00


     Writing all to output data dir ../out/aiida.save/ :
     XML data file, charge density, pseudopotentials, collected wavefunctions
 
     init_run     :     34.88s CPU     35.25s WALL (       1 calls)
     electrons    :   2498.91s CPU   2498.88s WALL (       1 calls)
     forces       :     17.60s CPU     17.59s WALL (       1 calls)
     stress       :     56.95s CPU     56.96s WALL (       1 calls)

     Called by init_run:
     wfcinit      :     29.86s CPU     30.03s WALL (       1 calls)
     wfcinit:atom :      0.97s CPU      0.97s WALL (      10 calls)
     wfcinit:wfcr :     28.43s CPU     28.51s WALL (      10 calls)
     potinit      :      2.04s CPU      2.08s WALL (       1 calls)
     hinit0       :      0.85s CPU      0.87s WALL (       1 calls)

     Called by electrons:
     c_bands      :   2157.77s CPU   2157.64s WALL (      29 calls)
     sum_band     :    259.01s CPU    259.03s WALL (      29 calls)
     v_of_rho     :      4.22s CPU      4.25s WALL (      29 calls)
     v_h          :      0.64s CPU      0.64s WALL (      29 calls)
     v_xc         :      3.83s CPU      3.86s WALL (      31 calls)
     newd         :     40.37s CPU     40.41s WALL (      29 calls)
                                       40.40s GPU  (      29 calls)
     PAW_pot      :     36.54s CPU     36.54s WALL (      29 calls)
     mix_rho      :      2.88s CPU      2.90s WALL (      29 calls)

     Called by c_bands:
     init_us_2    :     21.42s CPU     21.42s WALL (     610 calls)
     cegterg      :   2107.10s CPU   2106.98s WALL (     290 calls)

     Called by sum_band:
     sum_band:wei :      0.10s CPU      0.10s WALL (      29 calls)
     sum_band:loo :    223.27s CPU    223.28s WALL (      29 calls)
     sum_band:buf :      9.60s CPU      9.60s WALL (     290 calls)
     sum_band:ini :      9.66s CPU      9.66s WALL (     290 calls)
     sum_band:cal :     99.57s CPU     99.56s WALL (     290 calls)
     sum_band:bec :     14.22s CPU     14.22s WALL (     290 calls)
     addusdens    :     34.20s CPU     34.20s WALL (      29 calls)
                                       34.19s GPU  (      29 calls)
     addusd:skk   :      0.93s CPU      0.97s WALL (      87 calls)
                                        0.94s GPU  (      87 calls)

     Called by *egterg:
     cdiaghg      :     43.42s CPU     43.64s WALL (    2035 calls)
                                       43.12s GPU  (    2035 calls)
     cegterg:over :    414.03s CPU    413.99s WALL (    1755 calls)
     cegterg:upda :    147.92s CPU    147.90s WALL (    1755 calls)
     cegterg:last :    277.37s CPU    277.32s WALL (     652 calls)
     h_psi        :    982.80s CPU    985.43s WALL (    2055 calls)
                                      984.10s GPU  (    2055 calls)
     s_psi        :     62.72s CPU     62.71s WALL (    2055 calls)
     g_psi        :      0.01s CPU      8.35s WALL (    1755 calls)
                                        0.84s GPU  (    1755 calls)

     Called by h_psi:
     h_psi:calbec :    296.01s CPU    296.54s WALL (    2055 calls)
                                      289.99s GPU  (    2055 calls)
     vloc_psi     :    414.22s CPU    415.02s WALL (    2055 calls)
                                      414.21s GPU  (    2055 calls)
     add_vuspsi   :     36.43s CPU    262.98s WALL (    2055 calls)
                                      262.41s GPU  (    2055 calls)

     General routines
     calbec       :    453.62s CPU    453.61s WALL (    2515 calls)
     fft          :      2.28s CPU      3.09s WALL (     401 calls)
                                        2.05s GPU  (     372 calls)
     ffts         :      0.48s CPU      0.50s WALL (      58 calls)
                                        0.10s GPU  (      29 calls)
     fftw         :    332.24s CPU    377.81s WALL (   23534 calls)
                                      323.04s GPU  (   23534 calls)
     interpolate  :      1.22s CPU      1.22s WALL (      29 calls)
 
     Parallel routines

     PAW routines
     PAW_pot      :     36.54s CPU     36.54s WALL (      29 calls)
     PAW_symme    :      0.10s CPU      0.10s WALL (      58 calls)
 
     PWSCF        :  43m29.67s CPU  43m31.49s WALL

 
   This run was terminated on:  14:35: 3  28Apr2025            

=------------------------------------------------------------------------------=
   JOB DONE.
=------------------------------------------------------------------------------=
