
     Program PWSCF v.7.4 starts on 17May2025 at 16:19: 1 

     This program is part of the open-source Quantum ESPRESSO suite
     for quantum simulation of materials; please cite
         "P. Giannozzi et al., J. Phys.:Condens. Matter 21 395502 (2009);
         "P. Giannozzi et al., J. Phys.:Condens. Matter 29 465901 (2017);
         "P. Giannozzi et al., J. Chem. Phys. 152 154105 (2020);
          URL http://www.quantum-espresso.org", 
     in publications or presentations arising from this work. More details at
     http://www.quantum-espresso.org/quote

     Parallel version (MPI), running on     2 processors

     MPI processes distributed on     1 nodes
     26285 MiB available memory on the printing compute node when the environment starts
 
     Waiting for input...
     Reading input from standard input

     Current dimensions of program PWSCF are:
     Max number of different atomic species (ntypx) = 10
     Max number of k-points (npk) =  40000
     Max angular momentum in pseudopotentials (lmaxx) =  4
     Message from routine setup:
     using ibrav=0 with symmetry is DISCOURAGED, use correct ibrav instead
 
     R & G space division:  proc/nbgrp/npool/nimage =       2
     Subspace diagonalization in iterative solution of the eigenvalue problem:
     a serial algorithm will be used

 
     Parallelization info
     --------------------
     sticks:   dense  smooth     PW     G-vecs:    dense   smooth      PW
     Min       15333    7664   1916              2022144   714816   89462
     Max       15336    7665   1917              2022145   714819   89463
     Sum       30669   15329   3833              4044289  1429635  178925
 
     Using Slab Decomposition
 


     bravais-lattice index     =            0
     lattice parameter (alat)  =      28.3459  a.u.
     unit-cell volume          =   22775.6289 (a.u.)^3
     number of atoms/cell      =            2
     number of atomic types    =            1
     number of electrons       =        14.00
     number of Kohn-Sham states=            7
     kinetic-energy cutoff     =      60.0000  Ry
     charge density cutoff     =     480.0000  Ry
     scf convergence threshold =      1.0E-08
     mixing beta               =       0.7000
     number of iterations used =            8  plain     mixing
     Exchange-correlation= SLA  PW   PBX  PBC
                           (   1   4   3   4   0   0   0)

     GPU acceleration is ACTIVE.  1 visible GPUs per MPI rank
     GPU-aware MPI enabled


     GPU used by master process:

        Device Number: 0
        Device name: NVIDIA RTX A2000 12GB
        Compute capability : 86
        Ratio of single to double precision performance  : 32
        Memory Clock Rate (KHz): 6001000
        Memory Bus Width (bits): 192
        Peak Memory Bandwidth (GB/s): 288.05

     celldm(1)=  28.345892  celldm(2)=   0.000000  celldm(3)=   0.000000
     celldm(4)=   0.000000  celldm(5)=   0.000000  celldm(6)=   0.000000

     crystal axes: (cart. coord. in units of alat)
               a(1) = (   1.000000   0.000000   0.000000 )  
               a(2) = (   0.000000   1.000000   0.000000 )  
               a(3) = (   0.000000   0.000000   1.000000 )  

     reciprocal axes: (cart. coord. in units 2 pi/alat)
               b(1) = (  1.000000  0.000000  0.000000 )  
               b(2) = (  0.000000  1.000000  0.000000 )  
               b(3) = (  0.000000  0.000000  1.000000 )  


     PseudoPot. # 1 for I  read from file:
     ../pseudo/I.pbe-n-kjpaw_psl.0.2.UPF
     MD5 check sum: d4ef18d9c8f18dc85e5843bca1e50dc0
     Pseudo is Projector augmented-wave + core cor, Zval =  7.0
     Generated using "atomic" code by A. Dal Corso  v.5.0.99 svn rev. 10869
     Shape of augmentation charge: PSQ
     Using radial grid of 1247 points,  4 beta functions with: 
                l(1) =   0
                l(2) =   0
                l(3) =   1
                l(4) =   1
     Q(r) pseudized with 0 coefficients 


     atomic species   valence    mass     pseudopotential
     I                 7.00   126.90447     I ( 1.00)

      8 Sym. Ops. (no inversion) found


                                    s                        frac. trans.

      isym =  1     identity                                     

 cryst.   s( 1) = (     1          0          0      )
                  (     0          1          0      )
                  (     0          0          1      )

 cart.    s( 1) = (  1.0000000  0.0000000  0.0000000 )
                  (  0.0000000  1.0000000  0.0000000 )
                  (  0.0000000  0.0000000  1.0000000 )


      isym =  2     180 deg rotation - cart. axis [0,0,1]        

 cryst.   s( 2) = (    -1          0          0      )
                  (     0         -1          0      )
                  (     0          0          1      )

 cart.    s( 2) = ( -1.0000000  0.0000000  0.0000000 )
                  (  0.0000000 -1.0000000  0.0000000 )
                  (  0.0000000  0.0000000  1.0000000 )


      isym =  3      90 deg rotation - cart. axis [0,0,-1]       

 cryst.   s( 3) = (     0         -1          0      )
                  (     1          0          0      )
                  (     0          0          1      )

 cart.    s( 3) = (  0.0000000  1.0000000  0.0000000 )
                  ( -1.0000000  0.0000000  0.0000000 )
                  (  0.0000000  0.0000000  1.0000000 )


      isym =  4      90 deg rotation - cart. axis [0,0,1]        

 cryst.   s( 4) = (     0          1          0      )
                  (    -1          0          0      )
                  (     0          0          1      )

 cart.    s( 4) = (  0.0000000 -1.0000000  0.0000000 )
                  (  1.0000000  0.0000000  0.0000000 )
                  (  0.0000000  0.0000000  1.0000000 )


      isym =  5     inv. 180 deg rotation - cart. axis [0,1,0]   

 cryst.   s( 5) = (     1          0          0      )
                  (     0         -1          0      )
                  (     0          0          1      )

 cart.    s( 5) = (  1.0000000  0.0000000  0.0000000 )
                  (  0.0000000 -1.0000000  0.0000000 )
                  (  0.0000000  0.0000000  1.0000000 )


      isym =  6     inv. 180 deg rotation - cart. axis [1,0,0]   

 cryst.   s( 6) = (    -1          0          0      )
                  (     0          1          0      )
                  (     0          0          1      )

 cart.    s( 6) = ( -1.0000000  0.0000000  0.0000000 )
                  (  0.0000000  1.0000000  0.0000000 )
                  (  0.0000000  0.0000000  1.0000000 )


      isym =  7     inv. 180 deg rotation - cart. axis [1,1,0]   

 cryst.   s( 7) = (     0         -1          0      )
                  (    -1          0          0      )
                  (     0          0          1      )

 cart.    s( 7) = (  0.0000000 -1.0000000  0.0000000 )
                  ( -1.0000000  0.0000000  0.0000000 )
                  (  0.0000000  0.0000000  1.0000000 )


      isym =  8     inv. 180 deg rotation - cart. axis [1,-1,0]  

 cryst.   s( 8) = (     0          1          0      )
                  (     1          0          0      )
                  (     0          0          1      )

 cart.    s( 8) = (  0.0000000  1.0000000  0.0000000 )
                  (  1.0000000  0.0000000  0.0000000 )
                  (  0.0000000  0.0000000  1.0000000 )


   Cartesian axes

     site n.     atom                  positions (alat units)
         1        I      tau(   1) = (   0.5000000   0.5000000   0.5000000  )
         2        I      tau(   2) = (   0.5000000   0.5000000   0.6810000  )

   Crystallographic axes

     site n.     atom                  positions (cryst. coord.)
         1        I      tau(   1) = (  0.5000000  0.5000000  0.5000000  )
         2        I      tau(   2) = (  0.5000000  0.5000000  0.6810000  )

     number of k points=     1
                       cart. coord. in units 2pi/alat
        k(    1) = (   0.0000000   0.0000000   0.0000000), wk =   2.0000000

                       cryst. coord.
        k(    1) = (   0.0000000   0.0000000   0.0000000), wk =   2.0000000

     Dense  grid:  4044289 G-vectors     FFT dimensions: ( 200, 200, 200)

     Smooth grid:  1429635 G-vectors     FFT dimensions: ( 144, 144, 144)

     Dynamical RAM for                 wfc:       9.55 MB

     Dynamical RAM for     wfc (w. buffer):       9.55 MB

     Dynamical RAM for           str. fact:      30.86 MB

     Dynamical RAM for           local pot:       0.00 MB

     Dynamical RAM for          nlocal pot:      21.82 MB

     Dynamical RAM for                qrad:       0.50 MB

     Dynamical RAM for          rho,v,vnew:     184.12 MB

     Dynamical RAM for               rhoin:      61.37 MB

     Dynamical RAM for            rho*nmix:     493.69 MB

     Dynamical RAM for           G-vectors:     121.16 MB

     Dynamical RAM for          h,s,v(r/c):       0.01 MB

     Dynamical RAM for          <psi|beta>:       0.00 MB

     Dynamical RAM for                 psi:      19.09 MB

     Dynamical RAM for                hpsi:      19.09 MB

     Dynamical RAM for                spsi:      19.09 MB

     Dynamical RAM for      wfcinit/wfcrot:      19.09 MB

     Dynamical RAM for           addusdens:    1388.50 MB

     Estimated static dynamical RAM per process >     643.68 MB

     Estimated max dynamical RAM per process >       2.47 GB

     Estimated total dynamical RAM >       4.93 GB

     Initial potential from superposition of free atoms

     starting charge      13.9998, renormalised to      14.0000

     negative rho (up, down):  4.402E-04 0.000E+00
     Starting wfcs are    8 randomized atomic wfcs
     Checking if some PAW data can be deallocated... 

     total cpu time spent up to now is        5.3 secs

     Self-consistent Calculation
[tb_dev] Currently allocated     5.25E-01 Mbytes, locked:    0 /   5
[tb_pin] Currently allocated     0.00E+00 Mbytes, locked:    0 /   0

     iteration #  1     ecut=    60.00 Ry     beta= 0.70
     Davidson diagonalization with overlap

---- Real-time Memory Report at c_bands before calling an iterative solver
          1921 MiB given to the printing process from OS
             0 MiB allocation reported by mallinfo(arena+hblkhd)
         23198 MiB available memory on the node where the printing process lives
     GPU memory used/free/total (MiB): 6945 / 4977 / 11923
------------------
     ethr =  1.00E-02,  avg # of iterations =  1.0

     Threshold (ethr) on eigenvalues was too large:
     Diagonalizing with lowered threshold

     Davidson diagonalization with overlap

---- Real-time Memory Report at c_bands before calling an iterative solver
          2001 MiB given to the printing process from OS
             0 MiB allocation reported by mallinfo(arena+hblkhd)
         23040 MiB available memory on the node where the printing process lives
     GPU memory used/free/total (MiB): 6951 / 4971 / 11923
------------------
     ethr =  3.55E-04,  avg # of iterations =  2.0

     negative rho (up, down):  4.890E-04 0.000E+00

     total cpu time spent up to now is        8.4 secs

     total energy              =    -757.79068138 Ry
     estimated scf accuracy    <       0.04728719 Ry
[tb_dev] Currently allocated     1.53E-05 Mbytes, locked:    0 /   2
[tb_pin] Currently allocated     0.00E+00 Mbytes, locked:    0 /   0

     iteration #  2     ecut=    60.00 Ry     beta= 0.70
     Davidson diagonalization with overlap

---- Real-time Memory Report at c_bands before calling an iterative solver
          2078 MiB given to the printing process from OS
             0 MiB allocation reported by mallinfo(arena+hblkhd)
         22820 MiB available memory on the node where the printing process lives
     GPU memory used/free/total (MiB): 7337 / 4585 / 11923
------------------
     ethr =  3.38E-04,  avg # of iterations =  2.0

     negative rho (up, down):  4.229E-04 0.000E+00

     total cpu time spent up to now is       10.5 secs

     total energy              =    -757.79462297 Ry
     estimated scf accuracy    <       0.00105274 Ry
[tb_dev] Currently allocated     1.53E-05 Mbytes, locked:    0 /   2
[tb_pin] Currently allocated     0.00E+00 Mbytes, locked:    0 /   0

     iteration #  3     ecut=    60.00 Ry     beta= 0.70
     Davidson diagonalization with overlap

---- Real-time Memory Report at c_bands before calling an iterative solver
          2101 MiB given to the printing process from OS
             0 MiB allocation reported by mallinfo(arena+hblkhd)
         22796 MiB available memory on the node where the printing process lives
     GPU memory used/free/total (MiB): 7337 / 4585 / 11923
------------------
     ethr =  7.52E-06,  avg # of iterations =  2.0

     negative rho (up, down):  3.581E-04 0.000E+00

     total cpu time spent up to now is       12.7 secs

     total energy              =    -757.79485108 Ry
     estimated scf accuracy    <       0.00006019 Ry
[tb_dev] Currently allocated     1.53E-05 Mbytes, locked:    0 /   2
[tb_pin] Currently allocated     0.00E+00 Mbytes, locked:    0 /   0

     iteration #  4     ecut=    60.00 Ry     beta= 0.70
     Davidson diagonalization with overlap

---- Real-time Memory Report at c_bands before calling an iterative solver
          2123 MiB given to the printing process from OS
             0 MiB allocation reported by mallinfo(arena+hblkhd)
         22770 MiB available memory on the node where the printing process lives
     GPU memory used/free/total (MiB): 7337 / 4585 / 11923
------------------
     ethr =  4.30E-07,  avg # of iterations =  2.0

     negative rho (up, down):  3.382E-04 0.000E+00

     total cpu time spent up to now is       14.9 secs

     total energy              =    -757.79486535 Ry
     estimated scf accuracy    <       0.00001008 Ry
[tb_dev] Currently allocated     1.53E-05 Mbytes, locked:    0 /   2
[tb_pin] Currently allocated     0.00E+00 Mbytes, locked:    0 /   0

     iteration #  5     ecut=    60.00 Ry     beta= 0.70
     Davidson diagonalization with overlap

---- Real-time Memory Report at c_bands before calling an iterative solver
          2156 MiB given to the printing process from OS
             0 MiB allocation reported by mallinfo(arena+hblkhd)
         22708 MiB available memory on the node where the printing process lives
     GPU memory used/free/total (MiB): 7337 / 4585 / 11923
------------------
     ethr =  7.20E-08,  avg # of iterations =  2.0

     negative rho (up, down):  3.364E-04 0.000E+00

     total cpu time spent up to now is       17.1 secs

     total energy              =    -757.79486647 Ry
     estimated scf accuracy    <       0.00000030 Ry
[tb_dev] Currently allocated     1.53E-05 Mbytes, locked:    0 /   2
[tb_pin] Currently allocated     0.00E+00 Mbytes, locked:    0 /   0

     iteration #  6     ecut=    60.00 Ry     beta= 0.70
     Davidson diagonalization with overlap

---- Real-time Memory Report at c_bands before calling an iterative solver
          2189 MiB given to the printing process from OS
             0 MiB allocation reported by mallinfo(arena+hblkhd)
         22653 MiB available memory on the node where the printing process lives
     GPU memory used/free/total (MiB): 7337 / 4585 / 11923
------------------
     ethr =  2.13E-09,  avg # of iterations =  3.0

     negative rho (up, down):  3.348E-04 0.000E+00

     total cpu time spent up to now is       19.5 secs

     total energy              =    -757.79486672 Ry
     estimated scf accuracy    <       0.00000014 Ry
[tb_dev] Currently allocated     1.53E-05 Mbytes, locked:    0 /   2
[tb_pin] Currently allocated     0.00E+00 Mbytes, locked:    0 /   0

     iteration #  7     ecut=    60.00 Ry     beta= 0.70
     Davidson diagonalization with overlap

---- Real-time Memory Report at c_bands before calling an iterative solver
          2222 MiB given to the printing process from OS
             0 MiB allocation reported by mallinfo(arena+hblkhd)
         22606 MiB available memory on the node where the printing process lives
     GPU memory used/free/total (MiB): 7337 / 4585 / 11923
------------------
     ethr =  9.95E-10,  avg # of iterations =  2.0

     negative rho (up, down):  3.348E-04 0.000E+00

     total cpu time spent up to now is       21.5 secs

     End of self-consistent calculation

          k = 0.0000 0.0000 0.0000 (178925 PWs)   bands (ev):

   -18.5687 -16.5196  -9.3628  -7.5939  -7.5939  -6.0946  -6.0946

     occupation numbers 
     1.0000   1.0000   1.0000   1.0000   1.0000   1.0000   1.0000

     highest occupied level (ev):    -6.0946

!    total energy              =    -757.79486676 Ry
     total all-electron energy =    -28465.789758 Ry
     estimated scf accuracy    <          8.6E-09 Ry

     The total energy is the sum of the following terms:
     one-electron contribution =     -71.14962081 Ry
     hartree contribution      =      37.96637341 Ry
     xc contribution           =     -83.29710347 Ry
     ewald contribution        =      -0.26883425 Ry
     one-center paw contrib.   =    -641.04568163 Ry
      -> PAW hartree energy AE =       9.18898843 Ry
      -> PAW hartree energy PS =      -9.24601045 Ry
      -> PAW xc energy AE      =    -360.81261482 Ry
      -> PAW xc energy PS      =      40.34679084 Ry
      -> total E_H with PAW    =      37.90935139 Ry
      -> total E_XC with PAW   =    -403.76292745 Ry

     convergence has been achieved in   7 iterations

     Writing all to output data dir ../out/aiida.save/ :
     XML data file, charge density, pseudopotentials, collected wavefunctions
 
     init_run     :      4.55s CPU      5.14s WALL (       1 calls)
     electrons    :     16.17s CPU     16.46s WALL (       1 calls)

     Called by init_run:
     wfcinit      :      0.25s CPU      0.46s WALL (       1 calls)
     wfcinit:atom :      0.00s CPU      0.00s WALL (       1 calls)
     wfcinit:wfcr :      0.23s CPU      0.45s WALL (       1 calls)
     potinit      :      1.41s CPU      1.52s WALL (       1 calls)
     hinit0       :      0.28s CPU      0.38s WALL (       1 calls)

     Called by electrons:
     c_bands      :      2.83s CPU      2.83s WALL (       8 calls)
     sum_band     :      3.79s CPU      3.86s WALL (       8 calls)
     v_of_rho     :      3.07s CPU      3.14s WALL (       8 calls)
     v_h          :      0.57s CPU      0.62s WALL (       8 calls)
     v_xc         :      2.50s CPU      2.53s WALL (       8 calls)
     newd         :      4.13s CPU      4.15s WALL (       8 calls)
                                        4.15s GPU  (       8 calls)
     PAW_pot      :      0.63s CPU      0.64s WALL (       8 calls)
     mix_rho      :      1.19s CPU      1.23s WALL (       8 calls)

     Called by c_bands:
     init_us_2    :      0.07s CPU      0.07s WALL (      17 calls)
     cegterg      :      2.73s CPU      2.73s WALL (       8 calls)

     Called by sum_band:
     sum_band:wei :      0.00s CPU      0.00s WALL (       8 calls)
     sum_band:loo :      0.41s CPU      0.41s WALL (       8 calls)
     sum_band:buf :      0.02s CPU      0.02s WALL (       8 calls)
     sum_band:ini :      0.03s CPU      0.03s WALL (       8 calls)
     sum_band:cal :      0.07s CPU      0.07s WALL (       8 calls)
     sum_band:bec :      0.01s CPU      0.01s WALL (       8 calls)
     addusdens    :      2.01s CPU      2.03s WALL (       8 calls)
                                        2.03s GPU  (       8 calls)
     addusd:skk   :      0.02s CPU      0.02s WALL (       8 calls)
                                        0.02s GPU  (       8 calls)

     Called by *egterg:
     cdiaghg      :      0.04s CPU      0.05s WALL (      23 calls)
                                        0.05s GPU  (      23 calls)
     cegterg:over :      0.34s CPU      0.34s WALL (      16 calls)
     cegterg:upda :      0.15s CPU      0.15s WALL (      16 calls)
     cegterg:last :      0.12s CPU      0.12s WALL (      16 calls)
     h_psi        :      2.00s CPU      2.20s WALL (      25 calls)
                                        2.19s GPU  (      25 calls)
     s_psi        :      0.03s CPU      0.03s WALL (      25 calls)
     g_psi        :      0.00s CPU      0.03s WALL (      16 calls)
                                        0.01s GPU  (      16 calls)

     Called by h_psi:
     h_psi:calbec :      0.23s CPU      0.25s WALL (      25 calls)
                                        0.21s GPU  (      25 calls)
     vloc_psi     :      1.61s CPU      1.80s WALL (      25 calls)
                                        1.79s GPU  (      25 calls)
     add_vuspsi   :      0.02s CPU      0.09s WALL (      25 calls)
                                        0.09s GPU  (      25 calls)

     General routines
     calbec       :      0.30s CPU      0.31s WALL (      33 calls)
     fft          :      2.22s CPU      3.36s WALL (     103 calls)
                                        2.22s GPU  (      95 calls)
     ffts         :      0.66s CPU      0.68s WALL (      16 calls)
                                        0.04s GPU  (       8 calls)
     fftw         :      0.94s CPU      1.80s WALL (      58 calls)
                                        1.73s GPU  (      58 calls)
     interpolate  :      1.84s CPU      1.89s WALL (       8 calls)
 
     Parallel routines

     PAW routines
     PAW_pot      :      0.63s CPU      0.64s WALL (       8 calls)
     PAW_symme    :      0.00s CPU      0.00s WALL (      16 calls)
 
     PWSCF        :     21.01s CPU     22.10s WALL

 
   This run was terminated on:  16:19:23  17May2025            

=------------------------------------------------------------------------------=
   JOB DONE.
=------------------------------------------------------------------------------=
