
     Program PWSCF v.7.4 starts on 16May2025 at 17:10:54 

     This program is part of the open-source Quantum ESPRESSO suite
     for quantum simulation of materials; please cite
         "P. Giannozzi et al., J. Phys.:Condens. Matter 21 395502 (2009);
         "P. Giannozzi et al., J. Phys.:Condens. Matter 29 465901 (2017);
         "P. Giannozzi et al., J. Chem. Phys. 152 154105 (2020);
          URL http://www.quantum-espresso.org", 
     in publications or presentations arising from this work. More details at
     http://www.quantum-espresso.org/quote

     Parallel version (MPI), running on     2 processors

     MPI processes distributed on     1 nodes
     24882 MiB available memory on the printing compute node when the environment starts
 
     Waiting for input...
     Reading input from standard input

     Current dimensions of program PWSCF are:
     Max number of different atomic species (ntypx) = 10
     Max number of k-points (npk) =  40000
     Max angular momentum in pseudopotentials (lmaxx) =  4
     Found identity + ( -0.5000 -0.5000  0.0000) symmetry
     This is a supercell, fractional translations are disabled
     Message from routine setup:
     using ibrav=0 with symmetry is DISCOURAGED, use correct ibrav instead
 
     R & G space division:  proc/nbgrp/npool/nimage =       2
     Subspace diagonalization in iterative solution of the eigenvalue problem:
     a serial algorithm will be used

 
     Parallelization info
     --------------------
     sticks:   dense  smooth     PW     G-vecs:    dense   smooth      PW
     Min        1677     838    239               110444    39056    5993
     Max        1678     839    240               110445    39057    5994
     Sum        3355    1677    479               220889    78113   11987
 
     Using Slab Decomposition
 


     bravais-lattice index     =            0
     lattice parameter (alat)  =       8.6990  a.u.
     unit-cell volume          =    2792.0205 (a.u.)^3
     number of atoms/cell      =            8
     number of atomic types    =            1
     number of electrons       =        56.00
     number of Kohn-Sham states=           34
     kinetic-energy cutoff     =      35.0000  Ry
     charge density cutoff     =     280.0000  Ry
     scf convergence threshold =      1.6E-09
     mixing beta               =       0.4000
     number of iterations used =            8  plain     mixing
     Exchange-correlation= SLA  PW   PBX  PBC
                           (   1   4   3   4   0   0   0)

     GPU acceleration is ACTIVE.  1 visible GPUs per MPI rank
     GPU-aware MPI enabled


     GPU used by master process:

        Device Number: 0
        Device name: NVIDIA RTX A2000 12GB
        Compute capability : 86
        Ratio of single to double precision performance  : 32
        Memory Clock Rate (KHz): 6001000
        Memory Bus Width (bits): 192
        Peak Memory Bandwidth (GB/s): 288.05

     celldm(1)=   8.699037  celldm(2)=   0.000000  celldm(3)=   0.000000
     celldm(4)=   0.000000  celldm(5)=   0.000000  celldm(6)=   0.000000

     crystal axes: (cart. coord. in units of alat)
               a(1) = (   1.000000   0.000000   0.000000 )  
               a(2) = (   0.000000   1.985703   0.000000 )  
               a(3) = (   0.000000   0.000000   2.135948 )  

     reciprocal axes: (cart. coord. in units 2 pi/alat)
               b(1) = (  1.000000  0.000000  0.000000 )  
               b(2) = (  0.000000  0.503600  0.000000 )  
               b(3) = (  0.000000  0.000000  0.468176 )  


     PseudoPot. # 1 for I  read from file:
     ../pseudo/I.pbe-n-kjpaw_psl.0.2.UPF
     MD5 check sum: d4ef18d9c8f18dc85e5843bca1e50dc0
     Pseudo is Projector augmented-wave + core cor, Zval =  7.0
     Generated using "atomic" code by A. Dal Corso  v.5.0.99 svn rev. 10869
     Shape of augmentation charge: PSQ
     Using radial grid of 1247 points,  4 beta functions with: 
                l(1) =   0
                l(2) =   0
                l(3) =   1
                l(4) =   1
     Q(r) pseudized with 0 coefficients 


     atomic species   valence    mass     pseudopotential
     I                 7.00   126.90447     I ( 1.00)

      4 Sym. Ops., with inversion, found


                                    s                        frac. trans.

      isym =  1     identity                                     

 cryst.   s( 1) = (     1          0          0      )
                  (     0          1          0      )
                  (     0          0          1      )

 cart.    s( 1) = (  1.0000000  0.0000000  0.0000000 )
                  (  0.0000000  1.0000000  0.0000000 )
                  (  0.0000000  0.0000000  1.0000000 )


      isym =  2     180 deg rotation - cart. axis [0,1,0]        

 cryst.   s( 2) = (    -1          0          0      )
                  (     0          1          0      )
                  (     0          0         -1      )

 cart.    s( 2) = ( -1.0000000  0.0000000  0.0000000 )
                  (  0.0000000  1.0000000  0.0000000 )
                  (  0.0000000  0.0000000 -1.0000000 )


      isym =  3     inversion                                    

 cryst.   s( 3) = (    -1          0          0      )
                  (     0         -1          0      )
                  (     0          0         -1      )

 cart.    s( 3) = ( -1.0000000  0.0000000  0.0000000 )
                  (  0.0000000 -1.0000000  0.0000000 )
                  (  0.0000000  0.0000000 -1.0000000 )


      isym =  4     inv. 180 deg rotation - cart. axis [0,1,0]   

 cryst.   s( 4) = (     1          0          0      )
                  (     0         -1          0      )
                  (     0          0          1      )

 cart.    s( 4) = (  1.0000000  0.0000000  0.0000000 )
                  (  0.0000000 -1.0000000  0.0000000 )
                  (  0.0000000  0.0000000  1.0000000 )


   Cartesian axes

     site n.     atom                  positions (alat units)
         1        I      tau(   1) = (   0.3411330   0.0000000   0.2615319  )
         2        I      tau(   2) = (   0.6588670   0.0000000   1.8744164  )
         3        I      tau(   3) = (   0.1588670   0.0000000   1.3295060  )
         4        I      tau(   4) = (   0.8411330   0.0000000   0.8064422  )
         5        I      tau(   5) = (   0.8411330   0.9928517   0.2615319  )
         6        I      tau(   6) = (   0.1588670   0.9928517   1.8744164  )
         7        I      tau(   7) = (   0.6588670   0.9928517   1.3295060  )
         8        I      tau(   8) = (   0.3411330   0.9928517   0.8064422  )

   Crystallographic axes

     site n.     atom                  positions (cryst. coord.)
         1        I      tau(   1) = (  0.3411330  0.0000000  0.1224430  )
         2        I      tau(   2) = (  0.6588670  0.0000000  0.8775570  )
         3        I      tau(   3) = (  0.1588670  0.0000000  0.6224430  )
         4        I      tau(   4) = (  0.8411330  0.0000000  0.3775570  )
         5        I      tau(   5) = (  0.8411330  0.5000000  0.1224430  )
         6        I      tau(   6) = (  0.1588670  0.5000000  0.8775570  )
         7        I      tau(   7) = (  0.6588670  0.5000000  0.6224430  )
         8        I      tau(   8) = (  0.3411330  0.5000000  0.3775570  )

     number of k points=    78  Marzari-Vanderbilt smearing, width (Ry)=  0.0200
                       cart. coord. in units 2pi/alat
        k(    1) = (   0.0000000   0.0000000   0.0000000), wk =   0.0080000
        k(    2) = (   0.0000000   0.0000000   0.0936352), wk =   0.0160000
        k(    3) = (   0.0000000   0.0000000   0.1872705), wk =   0.0160000
        k(    4) = (   0.0000000   0.1007200   0.0000000), wk =   0.0160000
        k(    5) = (   0.0000000   0.1007200   0.0936352), wk =   0.0320000
        k(    6) = (   0.0000000   0.1007200   0.1872705), wk =   0.0320000
        k(    7) = (   0.0000000   0.2014400   0.0000000), wk =   0.0160000
        k(    8) = (   0.0000000   0.2014400   0.0936352), wk =   0.0320000
        k(    9) = (   0.0000000   0.2014400   0.1872705), wk =   0.0320000
        k(   10) = (   0.1000000   0.0000000   0.0000000), wk =   0.0160000
        k(   11) = (   0.1000000   0.0000000   0.0936352), wk =   0.0160000
        k(   12) = (   0.1000000   0.0000000   0.1872705), wk =   0.0160000
        k(   13) = (   0.1000000   0.1007200   0.0000000), wk =   0.0320000
        k(   14) = (   0.1000000   0.1007200   0.0936352), wk =   0.0320000
        k(   15) = (   0.1000000   0.1007200   0.1872705), wk =   0.0320000
        k(   16) = (   0.1000000   0.2014400   0.0000000), wk =   0.0320000
        k(   17) = (   0.1000000   0.2014400   0.0936352), wk =   0.0320000
        k(   18) = (   0.1000000   0.2014400   0.1872705), wk =   0.0320000
        k(   19) = (   0.2000000   0.0000000   0.0000000), wk =   0.0160000
        k(   20) = (   0.2000000   0.0000000   0.0936352), wk =   0.0160000
        k(   21) = (   0.2000000   0.0000000   0.1872705), wk =   0.0160000
        k(   22) = (   0.2000000   0.1007200   0.0000000), wk =   0.0320000
        k(   23) = (   0.2000000   0.1007200   0.0936352), wk =   0.0320000
        k(   24) = (   0.2000000   0.1007200   0.1872705), wk =   0.0320000
        k(   25) = (   0.2000000   0.2014400   0.0000000), wk =   0.0320000
        k(   26) = (   0.2000000   0.2014400   0.0936352), wk =   0.0320000
        k(   27) = (   0.2000000   0.2014400   0.1872705), wk =   0.0320000
        k(   28) = (   0.3000000   0.0000000   0.0000000), wk =   0.0160000
        k(   29) = (   0.3000000   0.0000000   0.0936352), wk =   0.0160000
        k(   30) = (   0.3000000   0.0000000   0.1872705), wk =   0.0160000
        k(   31) = (   0.3000000   0.1007200   0.0000000), wk =   0.0320000
        k(   32) = (   0.3000000   0.1007200   0.0936352), wk =   0.0320000
        k(   33) = (   0.3000000   0.1007200   0.1872705), wk =   0.0320000
        k(   34) = (   0.3000000   0.2014400   0.0000000), wk =   0.0320000
        k(   35) = (   0.3000000   0.2014400   0.0936352), wk =   0.0320000
        k(   36) = (   0.3000000   0.2014400   0.1872705), wk =   0.0320000
        k(   37) = (   0.4000000   0.0000000   0.0000000), wk =   0.0160000
        k(   38) = (   0.4000000   0.0000000   0.0936352), wk =   0.0160000
        k(   39) = (   0.4000000   0.0000000   0.1872705), wk =   0.0160000
        k(   40) = (   0.4000000   0.1007200   0.0000000), wk =   0.0320000
        k(   41) = (   0.4000000   0.1007200   0.0936352), wk =   0.0320000
        k(   42) = (   0.4000000   0.1007200   0.1872705), wk =   0.0320000
        k(   43) = (   0.4000000   0.2014400   0.0000000), wk =   0.0320000
        k(   44) = (   0.4000000   0.2014400   0.0936352), wk =   0.0320000
        k(   45) = (   0.4000000   0.2014400   0.1872705), wk =   0.0320000
        k(   46) = (  -0.5000000   0.0000000   0.0000000), wk =   0.0080000
        k(   47) = (  -0.5000000   0.0000000   0.0936352), wk =   0.0160000
        k(   48) = (  -0.5000000   0.0000000   0.1872705), wk =   0.0160000
        k(   49) = (  -0.5000000   0.1007200   0.0000000), wk =   0.0160000
        k(   50) = (  -0.5000000   0.1007200   0.0936352), wk =   0.0320000
        k(   51) = (  -0.5000000   0.1007200   0.1872705), wk =   0.0320000
        k(   52) = (  -0.5000000   0.2014400   0.0000000), wk =   0.0160000
        k(   53) = (  -0.5000000   0.2014400   0.0936352), wk =   0.0320000
        k(   54) = (  -0.5000000   0.2014400   0.1872705), wk =   0.0320000
        k(   55) = (  -0.1000000   0.0000000   0.0936352), wk =   0.0160000
        k(   56) = (  -0.1000000   0.0000000   0.1872705), wk =   0.0160000
        k(   57) = (  -0.1000000  -0.1007200   0.0936352), wk =   0.0320000
        k(   58) = (  -0.1000000  -0.1007200   0.1872705), wk =   0.0320000
        k(   59) = (  -0.1000000  -0.2014400   0.0936352), wk =   0.0320000
        k(   60) = (  -0.1000000  -0.2014400   0.1872705), wk =   0.0320000
        k(   61) = (  -0.2000000   0.0000000   0.0936352), wk =   0.0160000
        k(   62) = (  -0.2000000   0.0000000   0.1872705), wk =   0.0160000
        k(   63) = (  -0.2000000  -0.1007200   0.0936352), wk =   0.0320000
        k(   64) = (  -0.2000000  -0.1007200   0.1872705), wk =   0.0320000
        k(   65) = (  -0.2000000  -0.2014400   0.0936352), wk =   0.0320000
        k(   66) = (  -0.2000000  -0.2014400   0.1872705), wk =   0.0320000
        k(   67) = (  -0.3000000   0.0000000   0.0936352), wk =   0.0160000
        k(   68) = (  -0.3000000   0.0000000   0.1872705), wk =   0.0160000
        k(   69) = (  -0.3000000  -0.1007200   0.0936352), wk =   0.0320000
        k(   70) = (  -0.3000000  -0.1007200   0.1872705), wk =   0.0320000
        k(   71) = (  -0.3000000  -0.2014400   0.0936352), wk =   0.0320000
        k(   72) = (  -0.3000000  -0.2014400   0.1872705), wk =   0.0320000
        k(   73) = (  -0.4000000   0.0000000   0.0936352), wk =   0.0160000
        k(   74) = (  -0.4000000   0.0000000   0.1872705), wk =   0.0160000
        k(   75) = (  -0.4000000  -0.1007200   0.0936352), wk =   0.0320000
        k(   76) = (  -0.4000000  -0.1007200   0.1872705), wk =   0.0320000
        k(   77) = (  -0.4000000  -0.2014400   0.0936352), wk =   0.0320000
        k(   78) = (  -0.4000000  -0.2014400   0.1872705), wk =   0.0320000

                       cryst. coord.
        k(    1) = (   0.0000000   0.0000000   0.0000000), wk =   0.0080000
        k(    2) = (   0.0000000   0.0000000   0.2000000), wk =   0.0160000
        k(    3) = (   0.0000000   0.0000000   0.4000000), wk =   0.0160000
        k(    4) = (   0.0000000   0.2000000   0.0000000), wk =   0.0160000
        k(    5) = (   0.0000000   0.2000000   0.2000000), wk =   0.0320000
        k(    6) = (   0.0000000   0.2000000   0.4000000), wk =   0.0320000
        k(    7) = (   0.0000000   0.4000000   0.0000000), wk =   0.0160000
        k(    8) = (   0.0000000   0.4000000   0.2000000), wk =   0.0320000
        k(    9) = (   0.0000000   0.4000000   0.4000000), wk =   0.0320000
        k(   10) = (   0.1000000   0.0000000   0.0000000), wk =   0.0160000
        k(   11) = (   0.1000000   0.0000000   0.2000000), wk =   0.0160000
        k(   12) = (   0.1000000   0.0000000   0.4000000), wk =   0.0160000
        k(   13) = (   0.1000000   0.2000000   0.0000000), wk =   0.0320000
        k(   14) = (   0.1000000   0.2000000   0.2000000), wk =   0.0320000
        k(   15) = (   0.1000000   0.2000000   0.4000000), wk =   0.0320000
        k(   16) = (   0.1000000   0.4000000   0.0000000), wk =   0.0320000
        k(   17) = (   0.1000000   0.4000000   0.2000000), wk =   0.0320000
        k(   18) = (   0.1000000   0.4000000   0.4000000), wk =   0.0320000
        k(   19) = (   0.2000000   0.0000000   0.0000000), wk =   0.0160000
        k(   20) = (   0.2000000   0.0000000   0.2000000), wk =   0.0160000
        k(   21) = (   0.2000000   0.0000000   0.4000000), wk =   0.0160000
        k(   22) = (   0.2000000   0.2000000   0.0000000), wk =   0.0320000
        k(   23) = (   0.2000000   0.2000000   0.2000000), wk =   0.0320000
        k(   24) = (   0.2000000   0.2000000   0.4000000), wk =   0.0320000
        k(   25) = (   0.2000000   0.4000000   0.0000000), wk =   0.0320000
        k(   26) = (   0.2000000   0.4000000   0.2000000), wk =   0.0320000
        k(   27) = (   0.2000000   0.4000000   0.4000000), wk =   0.0320000
        k(   28) = (   0.3000000   0.0000000   0.0000000), wk =   0.0160000
        k(   29) = (   0.3000000   0.0000000   0.2000000), wk =   0.0160000
        k(   30) = (   0.3000000   0.0000000   0.4000000), wk =   0.0160000
        k(   31) = (   0.3000000   0.2000000   0.0000000), wk =   0.0320000
        k(   32) = (   0.3000000   0.2000000   0.2000000), wk =   0.0320000
        k(   33) = (   0.3000000   0.2000000   0.4000000), wk =   0.0320000
        k(   34) = (   0.3000000   0.4000000   0.0000000), wk =   0.0320000
        k(   35) = (   0.3000000   0.4000000   0.2000000), wk =   0.0320000
        k(   36) = (   0.3000000   0.4000000   0.4000000), wk =   0.0320000
        k(   37) = (   0.4000000   0.0000000   0.0000000), wk =   0.0160000
        k(   38) = (   0.4000000   0.0000000   0.2000000), wk =   0.0160000
        k(   39) = (   0.4000000   0.0000000   0.4000000), wk =   0.0160000
        k(   40) = (   0.4000000   0.2000000   0.0000000), wk =   0.0320000
        k(   41) = (   0.4000000   0.2000000   0.2000000), wk =   0.0320000
        k(   42) = (   0.4000000   0.2000000   0.4000000), wk =   0.0320000
        k(   43) = (   0.4000000   0.4000000   0.0000000), wk =   0.0320000
        k(   44) = (   0.4000000   0.4000000   0.2000000), wk =   0.0320000
        k(   45) = (   0.4000000   0.4000000   0.4000000), wk =   0.0320000
        k(   46) = (  -0.5000000   0.0000000   0.0000000), wk =   0.0080000
        k(   47) = (  -0.5000000   0.0000000   0.2000000), wk =   0.0160000
        k(   48) = (  -0.5000000   0.0000000   0.4000000), wk =   0.0160000
        k(   49) = (  -0.5000000   0.2000000   0.0000000), wk =   0.0160000
        k(   50) = (  -0.5000000   0.2000000   0.2000000), wk =   0.0320000
        k(   51) = (  -0.5000000   0.2000000   0.4000000), wk =   0.0320000
        k(   52) = (  -0.5000000   0.4000000   0.0000000), wk =   0.0160000
        k(   53) = (  -0.5000000   0.4000000   0.2000000), wk =   0.0320000
        k(   54) = (  -0.5000000   0.4000000   0.4000000), wk =   0.0320000
        k(   55) = (  -0.1000000   0.0000000   0.2000000), wk =   0.0160000
        k(   56) = (  -0.1000000   0.0000000   0.4000000), wk =   0.0160000
        k(   57) = (  -0.1000000  -0.2000000   0.2000000), wk =   0.0320000
        k(   58) = (  -0.1000000  -0.2000000   0.4000000), wk =   0.0320000
        k(   59) = (  -0.1000000  -0.4000000   0.2000000), wk =   0.0320000
        k(   60) = (  -0.1000000  -0.4000000   0.4000000), wk =   0.0320000
        k(   61) = (  -0.2000000   0.0000000   0.2000000), wk =   0.0160000
        k(   62) = (  -0.2000000   0.0000000   0.4000000), wk =   0.0160000
        k(   63) = (  -0.2000000  -0.2000000   0.2000000), wk =   0.0320000
        k(   64) = (  -0.2000000  -0.2000000   0.4000000), wk =   0.0320000
        k(   65) = (  -0.2000000  -0.4000000   0.2000000), wk =   0.0320000
        k(   66) = (  -0.2000000  -0.4000000   0.4000000), wk =   0.0320000
        k(   67) = (  -0.3000000   0.0000000   0.2000000), wk =   0.0160000
        k(   68) = (  -0.3000000   0.0000000   0.4000000), wk =   0.0160000
        k(   69) = (  -0.3000000  -0.2000000   0.2000000), wk =   0.0320000
        k(   70) = (  -0.3000000  -0.2000000   0.4000000), wk =   0.0320000
        k(   71) = (  -0.3000000  -0.4000000   0.2000000), wk =   0.0320000
        k(   72) = (  -0.3000000  -0.4000000   0.4000000), wk =   0.0320000
        k(   73) = (  -0.4000000   0.0000000   0.2000000), wk =   0.0160000
        k(   74) = (  -0.4000000   0.0000000   0.4000000), wk =   0.0160000
        k(   75) = (  -0.4000000  -0.2000000   0.2000000), wk =   0.0320000
        k(   76) = (  -0.4000000  -0.2000000   0.4000000), wk =   0.0320000
        k(   77) = (  -0.4000000  -0.4000000   0.2000000), wk =   0.0320000
        k(   78) = (  -0.4000000  -0.4000000   0.4000000), wk =   0.0320000

     Dense  grid:   220889 G-vectors     FFT dimensions: (  48,  96, 100)

     Smooth grid:    78113 G-vectors     FFT dimensions: (  36,  72,  72)

     Dynamical RAM for                 wfc:       2.53 MB

     Dynamical RAM for     wfc (w. buffer):     200.05 MB

     Dynamical RAM for           str. fact:       1.69 MB

     Dynamical RAM for           local pot:       0.00 MB

     Dynamical RAM for          nlocal pot:       4.77 MB

     Dynamical RAM for                qrad:       0.38 MB

     Dynamical RAM for          rho,v,vnew:      10.33 MB

     Dynamical RAM for               rhoin:       3.44 MB

     Dynamical RAM for            rho*nmix:      26.96 MB

     Dynamical RAM for           G-vectors:       6.62 MB

     Dynamical RAM for          h,s,v(r/c):       0.21 MB

     Dynamical RAM for          <psi|beta>:       0.03 MB

     Dynamical RAM for                 psi:       5.06 MB

     Dynamical RAM for                hpsi:       5.06 MB

     Dynamical RAM for                spsi:       5.06 MB

     Dynamical RAM for      wfcinit/wfcrot:       5.09 MB

     Dynamical RAM for           addusdens:      85.95 MB

     Dynamical RAM for          addusforce:     110.39 MB

     Dynamical RAM for         addusstress:      84.26 MB

     Estimated static dynamical RAM per process >     239.43 MB

     Estimated max dynamical RAM per process >     376.79 MB

     Estimated total dynamical RAM >     753.57 MB

     Initial potential from superposition of free atoms

     starting charge      55.9994, renormalised to      56.0000
     Starting wfcs are   32 randomized atomic wfcs +    2 random wfcs
     Checking if some PAW data can be deallocated... 

     total cpu time spent up to now is        6.5 secs

     Self-consistent Calculation
[tb_dev] Currently allocated     6.92E-01 Mbytes, locked:    0 /   6
[tb_pin] Currently allocated     0.00E+00 Mbytes, locked:    0 /   0

     iteration #  1     ecut=    35.00 Ry     beta= 0.40
     Davidson diagonalization with overlap

---- Real-time Memory Report at c_bands before calling an iterative solver
           919 MiB given to the printing process from OS
             0 MiB allocation reported by mallinfo(arena+hblkhd)
         23756 MiB available memory on the node where the printing process lives
     GPU memory used/free/total (MiB): 1111 / 10811 / 11923
------------------
     ethr =  1.00E-02,  avg # of iterations =  7.5

     Threshold (ethr) on eigenvalues was too large:
     Diagonalizing with lowered threshold

     Davidson diagonalization with overlap

---- Real-time Memory Report at c_bands before calling an iterative solver
           943 MiB given to the printing process from OS
             0 MiB allocation reported by mallinfo(arena+hblkhd)
         23738 MiB available memory on the node where the printing process lives
     GPU memory used/free/total (MiB): 1113 / 10809 / 11923
------------------
     ethr =  1.81E-04,  avg # of iterations =  5.7

     total cpu time spent up to now is       50.0 secs

     WARNING: integrated charge=    56.00084721, expected=    56.00000000

     total energy              =   -3031.30163482 Ry
     estimated scf accuracy    <       0.09824329 Ry
[tb_dev] Currently allocated     6.10E-05 Mbytes, locked:    0 /   2
[tb_pin] Currently allocated     0.00E+00 Mbytes, locked:    0 /   0

     iteration #  2     ecut=    35.00 Ry     beta= 0.40
     Davidson diagonalization with overlap

---- Real-time Memory Report at c_bands before calling an iterative solver
           950 MiB given to the printing process from OS
             0 MiB allocation reported by mallinfo(arena+hblkhd)
         23734 MiB available memory on the node where the printing process lives
     GPU memory used/free/total (MiB): 1137 / 10785 / 11923
------------------
     ethr =  1.75E-04,  avg # of iterations =  1.0

     negative rho (up, down):  3.607E-04 0.000E+00

     total cpu time spent up to now is       61.3 secs

     WARNING: integrated charge=    56.00363368, expected=    56.00000000

     total energy              =   -3031.29642726 Ry
     estimated scf accuracy    <       0.02183554 Ry
[tb_dev] Currently allocated     6.10E-05 Mbytes, locked:    0 /   2
[tb_pin] Currently allocated     0.00E+00 Mbytes, locked:    0 /   0

     iteration #  3     ecut=    35.00 Ry     beta= 0.40
     Davidson diagonalization with overlap

---- Real-time Memory Report at c_bands before calling an iterative solver
           952 MiB given to the printing process from OS
             0 MiB allocation reported by mallinfo(arena+hblkhd)
         23726 MiB available memory on the node where the printing process lives
     GPU memory used/free/total (MiB): 1137 / 10785 / 11923
------------------
     c_bands:  1 eigenvalues not converged
     ethr =  3.90E-05,  avg # of iterations =  4.6

     negative rho (up, down):  1.909E-04 0.000E+00

     total cpu time spent up to now is       80.4 secs

     WARNING: integrated charge=    56.00782626, expected=    56.00000000

     total energy              =   -3031.29801571 Ry
     estimated scf accuracy    <       0.00055667 Ry
[tb_dev] Currently allocated     6.10E-05 Mbytes, locked:    0 /   2
[tb_pin] Currently allocated     0.00E+00 Mbytes, locked:    0 /   0

     iteration #  4     ecut=    35.00 Ry     beta= 0.40
     Davidson diagonalization with overlap

---- Real-time Memory Report at c_bands before calling an iterative solver
           954 MiB given to the printing process from OS
             0 MiB allocation reported by mallinfo(arena+hblkhd)
         23716 MiB available memory on the node where the printing process lives
     GPU memory used/free/total (MiB): 1137 / 10785 / 11923
------------------
     c_bands:  1 eigenvalues not converged
     c_bands:  1 eigenvalues not converged
     ethr =  9.94E-07,  avg # of iterations =  8.8

     negative rho (up, down):  1.371E-04 0.000E+00

     total cpu time spent up to now is      108.4 secs

     WARNING: integrated charge=    56.00882193, expected=    56.00000000

     total energy              =   -3031.29812552 Ry
     estimated scf accuracy    <       0.00002868 Ry
[tb_dev] Currently allocated     6.10E-05 Mbytes, locked:    0 /   2
[tb_pin] Currently allocated     0.00E+00 Mbytes, locked:    0 /   0

     iteration #  5     ecut=    35.00 Ry     beta= 0.40
     Davidson diagonalization with overlap

---- Real-time Memory Report at c_bands before calling an iterative solver
           956 MiB given to the printing process from OS
             0 MiB allocation reported by mallinfo(arena+hblkhd)
         23713 MiB available memory on the node where the printing process lives
     GPU memory used/free/total (MiB): 1137 / 10785 / 11923
------------------
     ethr =  5.12E-08,  avg # of iterations =  2.2

     negative rho (up, down):  1.261E-04 0.000E+00

     total cpu time spent up to now is      123.3 secs

     WARNING: integrated charge=    56.00903234, expected=    56.00000000

     total energy              =   -3031.29813715 Ry
     estimated scf accuracy    <       0.00000743 Ry
[tb_dev] Currently allocated     6.10E-05 Mbytes, locked:    0 /   2
[tb_pin] Currently allocated     0.00E+00 Mbytes, locked:    0 /   0

     iteration #  6     ecut=    35.00 Ry     beta= 0.40
     Davidson diagonalization with overlap

---- Real-time Memory Report at c_bands before calling an iterative solver
           957 MiB given to the printing process from OS
             0 MiB allocation reported by mallinfo(arena+hblkhd)
         23708 MiB available memory on the node where the printing process lives
     GPU memory used/free/total (MiB): 1137 / 10785 / 11923
------------------
     ethr =  1.33E-08,  avg # of iterations =  2.0

     negative rho (up, down):  1.153E-04 0.000E+00

     total cpu time spent up to now is      137.0 secs

     WARNING: integrated charge=    56.00919783, expected=    56.00000000

     total energy              =   -3031.29813985 Ry
     estimated scf accuracy    <       0.00000191 Ry
[tb_dev] Currently allocated     6.10E-05 Mbytes, locked:    0 /   2
[tb_pin] Currently allocated     0.00E+00 Mbytes, locked:    0 /   0

     iteration #  7     ecut=    35.00 Ry     beta= 0.40
     Davidson diagonalization with overlap

---- Real-time Memory Report at c_bands before calling an iterative solver
           965 MiB given to the printing process from OS
             0 MiB allocation reported by mallinfo(arena+hblkhd)
         23696 MiB available memory on the node where the printing process lives
     GPU memory used/free/total (MiB): 1137 / 10785 / 11923
------------------
     ethr =  3.40E-09,  avg # of iterations =  2.0

     negative rho (up, down):  1.146E-04 0.000E+00

     total cpu time spent up to now is      151.9 secs

     WARNING: integrated charge=    56.00921119, expected=    56.00000000

     total energy              =   -3031.29814207 Ry
     estimated scf accuracy    <       0.00000010 Ry
[tb_dev] Currently allocated     6.10E-05 Mbytes, locked:    0 /   2
[tb_pin] Currently allocated     0.00E+00 Mbytes, locked:    0 /   0

     iteration #  8     ecut=    35.00 Ry     beta= 0.40
     Davidson diagonalization with overlap

---- Real-time Memory Report at c_bands before calling an iterative solver
           966 MiB given to the printing process from OS
             0 MiB allocation reported by mallinfo(arena+hblkhd)
         23706 MiB available memory on the node where the printing process lives
     GPU memory used/free/total (MiB): 1137 / 10785 / 11923
------------------
     ethr =  1.83E-10,  avg # of iterations =  2.9

     negative rho (up, down):  1.137E-04 0.000E+00

     total cpu time spent up to now is      168.7 secs

     WARNING: integrated charge=    56.00920832, expected=    56.00000000

     total energy              =   -3031.29814289 Ry
     estimated scf accuracy    <       0.00000002 Ry
[tb_dev] Currently allocated     6.10E-05 Mbytes, locked:    0 /   2
[tb_pin] Currently allocated     0.00E+00 Mbytes, locked:    0 /   0

     iteration #  9     ecut=    35.00 Ry     beta= 0.40
     Davidson diagonalization with overlap

---- Real-time Memory Report at c_bands before calling an iterative solver
           966 MiB given to the printing process from OS
             0 MiB allocation reported by mallinfo(arena+hblkhd)
         23707 MiB available memory on the node where the printing process lives
     GPU memory used/free/total (MiB): 1137 / 10785 / 11923
------------------
     ethr =  2.83E-11,  avg # of iterations =  2.2

     negative rho (up, down):  1.132E-04 0.000E+00

     total cpu time spent up to now is      184.7 secs

     WARNING: integrated charge=    56.00919655, expected=    56.00000000

     total energy              =   -3031.29814350 Ry
     estimated scf accuracy    <          6.3E-09 Ry
[tb_dev] Currently allocated     6.10E-05 Mbytes, locked:    0 /   2
[tb_pin] Currently allocated     0.00E+00 Mbytes, locked:    0 /   0

     iteration # 10     ecut=    35.00 Ry     beta= 0.40
     Davidson diagonalization with overlap

---- Real-time Memory Report at c_bands before calling an iterative solver
           966 MiB given to the printing process from OS
             0 MiB allocation reported by mallinfo(arena+hblkhd)
         23709 MiB available memory on the node where the printing process lives
     GPU memory used/free/total (MiB): 1137 / 10785 / 11923
------------------
     ethr =  1.12E-11,  avg # of iterations =  2.0

     negative rho (up, down):  1.133E-04 0.000E+00

     total cpu time spent up to now is      200.1 secs

     End of self-consistent calculation

          k = 0.0000 0.0000 0.0000 (  9787 PWs)   bands (ev):

   -11.9447 -11.8897 -11.2823 -11.2437 -10.4282 -10.3798  -9.2871  -9.2766
    -3.0007  -2.9386  -1.7591  -1.6993  -1.5439  -0.6824  -0.6696  -0.6534
    -0.5659  -0.2651  -0.2450  -0.2166  -0.0710  -0.0477  -0.0219   0.4803
     0.6799   0.7156   1.1646   1.2984   2.3307   2.3495   3.0768   3.1314
     5.8868   6.7406

     occupation numbers 
     1.0000   1.0000   1.0000   1.0000   1.0000   1.0000   1.0000   1.0000
     1.0000   1.0000   1.0000   1.0000   1.0000   1.0000   1.0000   1.0000
     1.0000   1.0000   1.0000   1.0000   1.0000   1.0000   1.0000   1.0000
     1.0000   1.0000   1.0024   1.0144   0.0063   0.0047   0.0000   0.0000
     0.0000   0.0000

          k = 0.0000 0.0000 0.0936 (  9783 PWs)   bands (ev):

   -11.9048 -11.8504 -11.3982 -11.3551 -10.2717 -10.2293  -9.3788  -9.3650
    -2.8933  -2.8403  -1.9061  -1.8649  -1.4985  -0.8728  -0.6464  -0.6035
    -0.5224  -0.2530  -0.2325  -0.1854   0.0290   0.0298   0.0724   0.6139
     0.6239   0.6643   1.0648   1.2423   2.3334   2.3495   2.9448   2.9881
     5.9753   6.6012

     occupation numbers 
     1.0000   1.0000   1.0000   1.0000   1.0000   1.0000   1.0000   1.0000
     1.0000   1.0000   1.0000   1.0000   1.0000   1.0000   1.0000   1.0000
     1.0000   1.0000   1.0000   1.0000   1.0000   1.0000   1.0000   1.0000
     1.0000   1.0000   1.0004   1.0072   0.0060   0.0046   0.0000   0.0000
     0.0000   0.0000

          k = 0.0000 0.0000 0.1873 (  9777 PWs)   bands (ev):

   -11.7881 -11.7357 -11.6069 -11.5582  -9.9522  -9.9199  -9.6240  -9.6020
    -2.6065  -2.5781  -2.2313  -2.2256  -1.3644  -1.1488  -0.5414  -0.4749
    -0.4121  -0.3780  -0.3303  -0.2925   0.2482   0.3046   0.4236   0.4698
     0.5208   0.7949   0.8575   1.0848   2.4198   2.4343   2.6586   2.6829
     6.1932   6.4664

     occupation numbers 
     1.0000   1.0000   1.0000   1.0000   1.0000   1.0000   1.0000   1.0000
     1.0000   1.0000   1.0000   1.0000   1.0000   1.0000   1.0000   1.0000
     1.0000   1.0000   1.0000   1.0000   1.0000   1.0000   1.0000   1.0000
     1.0000   1.0000   1.0000   1.0006   0.0014   0.0011   0.0000   0.0000
     0.0000   0.0000

          k = 0.0000 0.1007 0.0000 (  9741 PWs)   bands (ev):

   -11.9395 -11.8950 -11.2786 -11.2474 -10.4237 -10.3845  -9.2861  -9.2776
    -2.9950  -2.9449  -1.7535  -1.7051  -1.4739  -0.7813  -0.6453  -0.6239
    -0.5745  -0.2889  -0.2527  -0.1658  -0.1309  -0.0383   0.0081   0.4117
     0.6836   0.7131   1.1766   1.2848   2.3330   2.3484   3.0822   3.1264
     6.1391   6.4512

     occupation numbers 
     1.0000   1.0000   1.0000   1.0000   1.0000   1.0000   1.0000   1.0000
     1.0000   1.0000   1.0000   1.0000   1.0000   1.0000   1.0000   1.0000
     1.0000   1.0000   1.0000   1.0000   1.0000   1.0000   1.0000   1.0000
     1.0000   1.0000   1.0029   1.0123   0.0061   0.0047   0.0000   0.0000
     0.0000   0.0000

          k = 0.0000 0.1007 0.0936 (  9755 PWs)   bands (ev):

   -11.8996 -11.8557 -11.3941 -11.3593 -10.2677 -10.2334  -9.3775  -9.3664
    -2.8885  -2.8457  -1.9024  -1.8690  -1.4293  -0.8173  -0.7444  -0.5959
    -0.5299  -0.2811  -0.2586  -0.2242   0.0325   0.0757   0.0926   0.5568
     0.6271   0.6604   1.0820   1.2252   2.3363   2.3500   2.9501   2.9859
     6.2224   6.6215

     occupation numbers 
     1.0000   1.0000   1.0000   1.0000   1.0000   1.0000   1.0000   1.0000
     1.0000   1.0000   1.0000   1.0000   1.0000   1.0000   1.0000   1.0000
     1.0000   1.0000   1.0000   1.0000   1.0000   1.0000   1.0000   1.0000
     1.0000   1.0000   1.0006   1.0058   0.0058   0.0046   0.0000   0.0000
     0.0000   0.0000

          k = 0.0000 0.1007 0.1873 (  9760 PWs)   bands (ev):

   -11.7831 -11.7408 -11.6023 -11.5630  -9.9491  -9.9230  -9.6219  -9.6041
    -2.6041  -2.5812  -2.2311  -2.2264  -1.2974  -1.0859  -0.6369  -0.4698
    -0.4688  -0.4163  -0.3271  -0.2915   0.2493   0.2975   0.4688   0.4718
     0.5141   0.8165   0.8248   1.0581   2.4238   2.4370   2.6634   2.6846
     6.4266   6.6755

     occupation numbers 
     1.0000   1.0000   1.0000   1.0000   1.0000   1.0000   1.0000   1.0000
     1.0000   1.0000   1.0000   1.0000   1.0000   1.0000   1.0000   1.0000
     1.0000   1.0000   1.0000   1.0000   1.0000   1.0000   1.0000   1.0000
     1.0000   1.0000   1.0000   1.0004   0.0013   0.0010   0.0000   0.0000
     0.0000   0.0000

          k = 0.0000 0.2014 0.0000 (  9758 PWs)   bands (ev):

   -11.9259 -11.9089 -11.2691 -11.2572 -10.4116 -10.3967  -9.2835  -9.2803
    -2.9799  -2.9608  -1.7386  -1.7202  -1.2813  -1.0192  -0.6240  -0.5969
    -0.4989  -0.3294  -0.2894  -0.2717  -0.0151   0.0076   0.0374   0.2399
     0.6933   0.7049   1.2088   1.2501   2.3386   2.3447   3.0962   3.1132
     6.4683   6.8271

     occupation numbers 
     1.0000   1.0000   1.0000   1.0000   1.0000   1.0000   1.0000   1.0000
     1.0000   1.0000   1.0000   1.0000   1.0000   1.0000   1.0000   1.0000
     1.0000   1.0000   1.0000   1.0000   1.0000   1.0000   1.0000   1.0000
     1.0000   1.0000   1.0046   1.0080   0.0055   0.0050   0.0000   0.0000
     0.0000   0.0000

          k = 0.0000 0.2014 0.0936 (  9778 PWs)   bands (ev):

   -11.8862 -11.8694 -11.3835 -11.3702 -10.2572 -10.2441  -9.3741  -9.3698
    -2.8757  -2.8594  -1.8924  -1.8796  -1.2386  -0.9796  -0.6656  -0.5759
    -0.5506  -0.4621  -0.2589  -0.2453   0.0502   0.0689   0.2374   0.4119
     0.6365   0.6496   1.1265   1.1810   2.3428   2.3485   2.9632   2.9772
     6.6378   6.6439

     occupation numbers 
     1.0000   1.0000   1.0000   1.0000   1.0000   1.0000   1.0000   1.0000
     1.0000   1.0000   1.0000   1.0000   1.0000   1.0000   1.0000   1.0000
     1.0000   1.0000   1.0000   1.0000   1.0000   1.0000   1.0000   1.0000
     1.0000   1.0000   1.0013   1.0031   0.0052   0.0047   0.0000   0.0000
     0.0000   0.0000

          k = 0.0000 0.2014 0.1873 (  9757 PWs)   bands (ev):

   -11.7702 -11.7540 -11.5902 -11.5752  -9.9411  -9.9311  -9.6165  -9.6096
    -2.5974  -2.5887  -2.2301  -2.2283  -1.1131  -0.9134  -0.8633  -0.6807
    -0.4526  -0.4321  -0.3171  -0.3024   0.2599   0.2795   0.4810   0.4978
     0.5791   0.7103   0.8995   0.9879   2.4324   2.4383   2.6744   2.6833
     7.0574   7.1287

     occupation numbers 
     1.0000   1.0000   1.0000   1.0000   1.0000   1.0000   1.0000   1.0000
     1.0000   1.0000   1.0000   1.0000   1.0000   1.0000   1.0000   1.0000
     1.0000   1.0000   1.0000   1.0000   1.0000   1.0000   1.0000   1.0000
     1.0000   1.0000   1.0000   1.0001   0.0011   0.0010   0.0000   0.0000
     0.0000   0.0000

          k = 0.1000 0.0000 0.0000 (  9751 PWs)   bands (ev):

   -11.9158 -11.8622 -11.2798 -11.2436 -10.4063 -10.3592  -9.3251  -9.3170
    -3.0001  -2.9426  -1.8597  -1.8041  -1.5008  -0.9391  -0.8711  -0.6585
    -0.6478  -0.5251  -0.5157  -0.1846  -0.0840   0.2786   0.3220   0.4913
     0.9072   0.9542   1.1436   1.2437   2.2893   2.2940   2.9896   3.0415
     5.9866   6.6252

     occupation numbers 
     1.0000   1.0000   1.0000   1.0000   1.0000   1.0000   1.0000   1.0000
     1.0000   1.0000   1.0000   1.0000   1.0000   1.0000   1.0000   1.0000
     1.0000   1.0000   1.0000   1.0000   1.0000   1.0000   1.0000   1.0000
     1.0000   1.0000   1.0017   1.0074   0.0118   0.0110   0.0000   0.0000
     0.0000   0.0000

          k = 0.1000 0.0000 0.0936 (  9755 PWs)   bands (ev):

   -11.8768 -11.8240 -11.3884 -11.3477 -10.2596 -10.2186  -9.4117  -9.4003
    -2.9076  -2.8592  -2.0133  -1.9760  -1.4561  -0.8529  -0.8427  -0.7876
    -0.6238  -0.3366  -0.3157  -0.1871   0.0512   0.1247   0.1674   0.6112
     0.7857   0.8341   1.0484   1.1919   2.3671   2.3748   2.9481   2.9944
     6.0534   6.7657

     occupation numbers 
     1.0000   1.0000   1.0000   1.0000   1.0000   1.0000   1.0000   1.0000
     1.0000   1.0000   1.0000   1.0000   1.0000   1.0000   1.0000   1.0000
     1.0000   1.0000   1.0000   1.0000   1.0000   1.0000   1.0000   1.0000
     1.0000   1.0000   1.0003   1.0036   0.0035   0.0031   0.0000   0.0000
     0.0000   0.0000

          k = 0.1000 0.0000 0.1873 (  9771 PWs)   bands (ev):

   -11.7634 -11.7127 -11.5881 -11.5413  -9.9562  -9.9259  -9.6441  -9.6243
    -2.6587  -2.6340  -2.3249  -2.3189  -1.3241  -1.1123  -0.5964  -0.5399
    -0.5231  -0.3674  -0.2284  -0.1820   0.0565   0.0928   0.4320   0.4680
     0.5134   0.7899   0.8355   1.0463   2.5661   2.5838   2.7953   2.8275
     6.2501   6.5268

     occupation numbers 
     1.0000   1.0000   1.0000   1.0000   1.0000   1.0000   1.0000   1.0000
     1.0000   1.0000   1.0000   1.0000   1.0000   1.0000   1.0000   1.0000
     1.0000   1.0000   1.0000   1.0000   1.0000   1.0000   1.0000   1.0000
     1.0000   1.0000   1.0000   1.0003   0.0001   0.0000   0.0000   0.0000
     0.0000   0.0000

          k = 0.1000 0.1007 0.0000 (  9763 PWs)   bands (ev):

   -11.9107 -11.8674 -11.2764 -11.2471 -10.4019 -10.3638  -9.3243  -9.3178
    -2.9949  -2.9485  -1.8547  -1.8096  -1.4324  -0.9392  -0.8813  -0.7577
    -0.5927  -0.5311  -0.5163  -0.1416  -0.1187   0.2844   0.3213   0.4226
     0.9116   0.9498   1.1529   1.2336   2.2910   2.2957   2.9950   3.0372
     6.2296   6.6424

     occupation numbers 
     1.0000   1.0000   1.0000   1.0000   1.0000   1.0000   1.0000   1.0000
     1.0000   1.0000   1.0000   1.0000   1.0000   1.0000   1.0000   1.0000
     1.0000   1.0000   1.0000   1.0000   1.0000   1.0000   1.0000   1.0000
     1.0000   1.0000   1.0020   1.0065   0.0115   0.0108   0.0000   0.0000
     0.0000   0.0000

          k = 0.1000 0.1007 0.0936 (  9759 PWs)   bands (ev):

   -11.8719 -11.8291 -11.3846 -11.3516 -10.2557 -10.2226  -9.4106  -9.4014
    -2.9033  -2.8642  -2.0101  -1.9799  -1.3883  -0.8700  -0.7987  -0.7642
    -0.7202  -0.3380  -0.3223  -0.2495   0.0982   0.1369   0.1654   0.5552
     0.7895   0.8290   1.0628   1.1782   2.3696   2.3769   2.9532   2.9910
     6.2911   6.8205

     occupation numbers 
     1.0000   1.0000   1.0000   1.0000   1.0000   1.0000   1.0000   1.0000
     1.0000   1.0000   1.0000   1.0000   1.0000   1.0000   1.0000   1.0000
     1.0000   1.0000   1.0000   1.0000   1.0000   1.0000   1.0000   1.0000
     1.0000   1.0000   1.0004   1.0029   0.0033   0.0029   0.0000   0.0000
     0.0000   0.0000

          k = 0.1000 0.1007 0.1873 (  9747 PWs)   bands (ev):

   -11.7586 -11.7176 -11.5837 -11.5458  -9.9533  -9.9288  -9.6422  -9.6262
    -2.6567  -2.6367  -2.3247  -2.3198  -1.2589  -1.0532  -0.6164  -0.5880
    -0.5629  -0.4325  -0.2232  -0.1833   0.0575   0.0890   0.4614   0.4815
     0.5079   0.7971   0.8164   1.0225   2.5699   2.5853   2.7998   2.8267
     6.4739   6.7245

     occupation numbers 
     1.0000   1.0000   1.0000   1.0000   1.0000   1.0000   1.0000   1.0000
     1.0000   1.0000   1.0000   1.0000   1.0000   1.0000   1.0000   1.0000
     1.0000   1.0000   1.0000   1.0000   1.0000   1.0000   1.0000   1.0000
     1.0000   1.0000   1.0000   1.0002   0.0001   0.0000   0.0000   0.0000
     0.0000   0.0000

          k = 0.1000 0.2014 0.0000 (  9771 PWs)   bands (ev):

   -11.8975 -11.8809 -11.2674 -11.2562 -10.3902 -10.3757  -9.3223  -9.3198
    -2.9810  -2.9634  -1.8412  -1.8240  -1.2443  -0.9896  -0.9291  -0.9056
    -0.5338  -0.5255  -0.4547  -0.2849   0.0464   0.2504   0.2987   0.3137
     0.9232   0.9378   1.1773   1.2079   2.2948   2.2970   3.0088   3.0250
     6.6736   6.6830

     occupation numbers 
     1.0000   1.0000   1.0000   1.0000   1.0000   1.0000   1.0000   1.0000
     1.0000   1.0000   1.0000   1.0000   1.0000   1.0000   1.0000   1.0000
     1.0000   1.0000   1.0000   1.0000   1.0000   1.0000   1.0000   1.0000
     1.0000   1.0000   1.0029   1.0045   0.0109   0.0105   0.0000   0.0000
     0.0000   0.0000

          k = 0.1000 0.2014 0.0936 (  9765 PWs)   bands (ev):

   -11.8588 -11.8424 -11.3745 -11.3619 -10.2456 -10.2329  -9.4078  -9.4042
    -2.8917  -2.8769  -2.0014  -1.9898  -1.2020  -0.9496  -0.8555  -0.8259
    -0.6126  -0.4259  -0.3344  -0.3201   0.1373   0.1552   0.2483   0.4147
     0.8006   0.8159   1.0993   1.1430   2.3751   2.3785   2.9660   2.9807
     6.8440   6.8510

     occupation numbers 
     1.0000   1.0000   1.0000   1.0000   1.0000   1.0000   1.0000   1.0000
     1.0000   1.0000   1.0000   1.0000   1.0000   1.0000   1.0000   1.0000
     1.0000   1.0000   1.0000   1.0000   1.0000   1.0000   1.0000   1.0000
     1.0000   1.0000   1.0008   1.0017   0.0030   0.0029   0.0000   0.0000
     0.0000   0.0000

          k = 0.1000 0.2014 0.1873 (  9744 PWs)   bands (ev):

   -11.7460 -11.7303 -11.5721 -11.5576  -9.9458  -9.9364  -9.6373  -9.6311
    -2.6511  -2.6435  -2.3239  -2.3220  -1.0797  -0.8931  -0.8371  -0.6886
    -0.5642  -0.5235  -0.2097  -0.1934   0.0643   0.0775   0.4771   0.4935
     0.5771   0.6984   0.8826   0.9606   2.5783   2.5849   2.8106   2.8214
     7.0786   7.2368

     occupation numbers 
     1.0000   1.0000   1.0000   1.0000   1.0000   1.0000   1.0000   1.0000
     1.0000   1.0000   1.0000   1.0000   1.0000   1.0000   1.0000   1.0000
     1.0000   1.0000   1.0000   1.0000   1.0000   1.0000   1.0000   1.0000
     1.0000   1.0000   1.0000   1.0001   0.0001   0.0000   0.0000   0.0000
     0.0000   0.0000

          k = 0.2000 0.0000 0.0000 (  9772 PWs)   bands (ev):

   -11.8332 -11.7840 -11.2776 -11.2484 -10.3428 -10.2997  -9.4321  -9.4301
    -3.0157  -2.9712  -2.1916  -2.1419  -1.3750  -1.1270  -1.0777  -0.8647
    -0.8528  -0.5931  -0.5881  -0.1316  -0.0920   0.5224   0.5389   0.5929
     0.9486   1.0006   1.0811   1.0926   2.4311   2.4430   2.9222   2.9648
     6.2507   7.2071

     occupation numbers 
     1.0000   1.0000   1.0000   1.0000   1.0000   1.0000   1.0000   1.0000
     1.0000   1.0000   1.0000   1.0000   1.0000   1.0000   1.0000   1.0000
     1.0000   1.0000   1.0000   1.0000   1.0000   1.0000   1.0000   1.0000
     1.0000   1.0001   1.0006   1.0007   0.0011   0.0009   0.0000   0.0000
     0.0000   0.0000

          k = 0.2000 0.0000 0.0936 (  9745 PWs)   bands (ev):

   -11.7975 -11.7493 -11.3656 -11.3318 -10.2236 -10.1868  -9.5047  -9.4995
    -2.9525  -2.9157  -2.2805  -2.2491  -1.3324  -1.1927  -1.1486  -0.7581
    -0.5631  -0.5154  -0.5079  -0.2043   0.1122   0.1720   0.2222   0.6054
     0.9621   0.9987   1.0016   1.0521   2.5504   2.5555   2.9678   3.0089
     6.2976   7.0705

     occupation numbers 
     1.0000   1.0000   1.0000   1.0000   1.0000   1.0000   1.0000   1.0000
     1.0000   1.0000   1.0000   1.0000   1.0000   1.0000   1.0000   1.0000
     1.0000   1.0000   1.0000   1.0000   1.0000   1.0000   1.0000   1.0000
     1.0001   1.0001   1.0001   1.0004   0.0001   0.0001   0.0000   0.0000
     0.0000   0.0000

          k = 0.2000 0.0000 0.1873 (  9740 PWs)   bands (ev):

   -11.6943 -11.6487 -11.5375 -11.4968  -9.9676  -9.9425  -9.7015  -9.6877
    -2.7732  -2.7548  -2.5147  -2.5106  -1.2071  -1.0074  -0.9621  -0.9115
    -0.4959  -0.4764  -0.4461  -0.3460   0.1233   0.1370   0.4534   0.6361
     0.6581   0.7722   0.7743   0.9382   2.8064   2.8338   2.9715   3.0091
     6.4546   6.7293

     occupation numbers 
     1.0000   1.0000   1.0000   1.0000   1.0000   1.0000   1.0000   1.0000
     1.0000   1.0000   1.0000   1.0000   1.0000   1.0000   1.0000   1.0000
     1.0000   1.0000   1.0000   1.0000   1.0000   1.0000   1.0000   1.0000
     1.0000   1.0000   1.0000   1.0000   0.0000   0.0000   0.0000   0.0000
     0.0000   0.0000

          k = 0.2000 0.1007 0.0000 (  9776 PWs)   bands (ev):

   -11.8286 -11.7888 -11.2748 -11.2512 -10.3387 -10.3039  -9.4319  -9.4303
    -3.0119  -2.9760  -2.1878  -2.1475  -1.3119  -1.1275  -1.0865  -0.8743
    -0.8547  -0.6705  -0.5394  -0.1705  -0.0350   0.4589   0.5437   0.5874
     0.9541   0.9969   1.0829   1.0912   2.4348   2.4434   2.9268   2.9614
     6.4606   7.2288

     occupation numbers 
     1.0000   1.0000   1.0000   1.0000   1.0000   1.0000   1.0000   1.0000
     1.0000   1.0000   1.0000   1.0000   1.0000   1.0000   1.0000   1.0000
     1.0000   1.0000   1.0000   1.0000   1.0000   1.0000   1.0000   1.0000
     1.0000   1.0001   1.0006   1.0007   0.0011   0.0009   0.0000   0.0000
     0.0000   0.0000

          k = 0.2000 0.1007 0.0936 (  9759 PWs)   bands (ev):

   -11.7930 -11.7539 -11.3624 -11.3350 -10.2201 -10.1904  -9.5042  -9.5000
    -2.9494  -2.9198  -2.2782  -2.2527  -1.2735  -1.1917  -1.1586  -0.6995
    -0.6565  -0.5161  -0.5010  -0.2529   0.1505   0.1854   0.2177   0.5557
     0.9617   0.9954   1.0088   1.0495   2.5519   2.5568   2.9723   3.0058
     6.5034   7.1527

     occupation numbers 
     1.0000   1.0000   1.0000   1.0000   1.0000   1.0000   1.0000   1.0000
     1.0000   1.0000   1.0000   1.0000   1.0000   1.0000   1.0000   1.0000
     1.0000   1.0000   1.0000   1.0000   1.0000   1.0000   1.0000   1.0000
     1.0001   1.0001   1.0002   1.0003   0.0001   0.0001   0.0000   0.0000
     0.0000   0.0000

          k = 0.2000 0.1007 0.1873 (  9741 PWs)   bands (ev):

   -11.6900 -11.6531 -11.5337 -11.5007  -9.9653  -9.9449  -9.7002  -9.6890
    -2.7719  -2.7571  -2.5149  -2.5116  -1.1505  -1.0113  -0.9259  -0.8936
    -0.5812  -0.4864  -0.4312  -0.3966   0.1214   0.1336   0.4868   0.6344
     0.6541   0.7435   0.7927   0.9238   2.8096   2.8321   2.9756   3.0063
     6.6454   6.8849

     occupation numbers 
     1.0000   1.0000   1.0000   1.0000   1.0000   1.0000   1.0000   1.0000
     1.0000   1.0000   1.0000   1.0000   1.0000   1.0000   1.0000   1.0000
     1.0000   1.0000   1.0000   1.0000   1.0000   1.0000   1.0000   1.0000
     1.0000   1.0000   1.0000   1.0000   0.0000   0.0000   0.0000   0.0000
     0.0000   0.0000

          k = 0.2000 0.2014 0.0000 (  9763 PWs)   bands (ev):

   -11.8164 -11.8012 -11.2676 -11.2585 -10.3280 -10.3147  -9.4314  -9.4308
    -3.0016  -2.9880  -2.1768  -2.1614  -1.1420  -1.1223  -1.1060  -0.9418
    -0.8523  -0.8158  -0.4180  -0.2773   0.1137   0.3006   0.5567   0.5734
     0.9682   0.9850   1.0862   1.0888   2.4409   2.4436   2.9384   2.9517
     6.9914   7.2689

     occupation numbers 
     1.0000   1.0000   1.0000   1.0000   1.0000   1.0000   1.0000   1.0000
     1.0000   1.0000   1.0000   1.0000   1.0000   1.0000   1.0000   1.0000
     1.0000   1.0000   1.0000   1.0000   1.0000   1.0000   1.0000   1.0000
     1.0001   1.0001   1.0007   1.0007   0.0009   0.0009   0.0000   0.0000
     0.0000   0.0000

          k = 0.2000 0.2014 0.0936 (  9756 PWs)   bands (ev):

   -11.7810 -11.7661 -11.3540 -11.3435 -10.2110 -10.1997  -9.5030  -9.5013
    -2.9411  -2.9299  -2.2714  -2.2616  -1.2029  -1.1813  -1.0875  -0.8620
    -0.5548  -0.5137  -0.5068  -0.3843   0.1844   0.2040   0.2855   0.4317
     0.9673   0.9808   1.0272   1.0416   2.5554   2.5577   2.9837   2.9966
     7.0262   7.3700

     occupation numbers 
     1.0000   1.0000   1.0000   1.0000   1.0000   1.0000   1.0000   1.0000
     1.0000   1.0000   1.0000   1.0000   1.0000   1.0000   1.0000   1.0000
     1.0000   1.0000   1.0000   1.0000   1.0000   1.0000   1.0000   1.0000
     1.0001   1.0001   1.0002   1.0003   0.0001   0.0001   0.0000   0.0000
     0.0000   0.0000

          k = 0.2000 0.2014 0.1873 (  9750 PWs)   bands (ev):

   -11.6787 -11.6646 -11.5235 -11.5110  -9.9590  -9.9513  -9.6967  -9.6925
    -2.7682  -2.7626  -2.5148  -2.5135  -1.0183  -0.9652  -0.9624  -0.7730
    -0.7436  -0.5617  -0.4611  -0.4307   0.1209   0.1262   0.5692   0.6360
     0.6446   0.6656   0.8387   0.8871   2.8176   2.8264   2.9860   2.9978
     7.1354   7.2867

     occupation numbers 
     1.0000   1.0000   1.0000   1.0000   1.0000   1.0000   1.0000   1.0000
     1.0000   1.0000   1.0000   1.0000   1.0000   1.0000   1.0000   1.0000
     1.0000   1.0000   1.0000   1.0000   1.0000   1.0000   1.0000   1.0000
     1.0000   1.0000   1.0000   1.0000   0.0000   0.0000   0.0000   0.0000
     0.0000   0.0000

          k = 0.3000 0.0000 0.0000 (  9788 PWs)   bands (ev):

   -11.7097 -11.6685 -11.2895 -11.2721 -10.2429 -10.2059  -9.5936  -9.5875
    -3.0704  -3.0406  -2.6052  -2.5620  -1.1771  -1.0718  -1.0444  -0.9957
    -0.9613  -0.5079  -0.5065  -0.2357   0.0510   0.3949   0.4590   0.5708
     0.5712   0.6057   0.8809   0.9816   2.8639   2.8741   3.0925   3.1214
     6.6361   7.6411

     occupation numbers 
     1.0000   1.0000   1.0000   1.0000   1.0000   1.0000   1.0000   1.0000
     1.0000   1.0000   1.0000   1.0000   1.0000   1.0000   1.0000   1.0000
     1.0000   1.0000   1.0000   1.0000   1.0000   1.0000   1.0000   1.0000
     1.0000   1.0000   1.0000   1.0001   0.0000   0.0000   0.0000   0.0000
     0.0000   0.0000

          k = 0.3000 0.0000 0.0936 (  9761 PWs)   bands (ev):

   -11.6803 -11.6403 -11.3480 -11.3260 -10.1633 -10.1325  -9.6436  -9.6409
    -3.0230  -2.9984  -2.5832  -2.5544  -1.4359  -1.4226  -1.1386  -0.6376
    -0.5405  -0.5249  -0.4858  -0.2694  -0.0766  -0.0522   0.2046   0.6082
     0.8561   0.9170   1.0427   1.0825   2.6751   2.6773   3.1889   3.2173
     6.6827   7.4934

     occupation numbers 
     1.0000   1.0000   1.0000   1.0000   1.0000   1.0000   1.0000   1.0000
     1.0000   1.0000   1.0000   1.0000   1.0000   1.0000   1.0000   1.0000
     1.0000   1.0000   1.0000   1.0000   1.0000   1.0000   1.0000   1.0000
     1.0000   1.0000   1.0003   1.0006   0.0000   0.0000   0.0000   0.0000
     0.0000   0.0000

          k = 0.3000 0.0000 0.1873 (  9770 PWs)   bands (ev):

   -11.5964 -11.5601 -11.4735 -11.4435  -9.9813  -9.9630  -9.7858  -9.7798
    -2.8760  -2.8614  -2.6677  -2.6673  -1.4166  -1.3805  -1.0258  -0.9835
    -0.9382  -0.8490  -0.4279  -0.3468   0.4086   0.4140   0.4797   0.6945
     0.7371   0.7877   0.9882   0.9980   2.7561   2.7841   3.0733   3.1085
     6.8315   7.1030

     occupation numbers 
     1.0000   1.0000   1.0000   1.0000   1.0000   1.0000   1.0000   1.0000
     1.0000   1.0000   1.0000   1.0000   1.0000   1.0000   1.0000   1.0000
     1.0000   1.0000   1.0000   1.0000   1.0000   1.0000   1.0000   1.0000
     1.0000   1.0000   1.0001   1.0001   0.0000   0.0000   0.0000   0.0000
     0.0000   0.0000

          k = 0.3000 0.1007 0.0000 (  9774 PWs)   bands (ev):

   -11.7058 -11.6724 -11.2878 -11.2738 -10.2394 -10.2095  -9.5930  -9.5881
    -3.0683  -3.0444  -2.6024  -2.5674  -1.1274  -1.0750  -1.0524  -0.9985
    -0.9576  -0.5719  -0.4713  -0.2498   0.0977   0.4000   0.4513   0.5028
     0.5778   0.6205   0.8902   0.9725   2.8661   2.8739   3.0953   3.1188
     6.7581   7.2820

     occupation numbers 
     1.0000   1.0000   1.0000   1.0000   1.0000   1.0000   1.0000   1.0000
     1.0000   1.0000   1.0000   1.0000   1.0000   1.0000   1.0000   1.0000
     1.0000   1.0000   1.0000   1.0000   1.0000   1.0000   1.0000   1.0000
     1.0000   1.0000   1.0000   1.0001   0.0000   0.0000   0.0000   0.0000
     0.0000   0.0000

          k = 0.3000 0.1007 0.0936 (  9769 PWs)   bands (ev):

   -11.6765 -11.6441 -11.3459 -11.3281 -10.1604 -10.1355  -9.6434  -9.6411
    -3.0214  -3.0017  -2.5814  -2.5581  -1.4414  -1.4290  -1.0825  -0.6023
    -0.5929  -0.5263  -0.4897  -0.2889  -0.0775  -0.0560   0.2435   0.5653
     0.8586   0.9090   1.0495   1.0817   2.6757   2.6778   3.1919   3.2149
     6.8024   7.2710

     occupation numbers 
     1.0000   1.0000   1.0000   1.0000   1.0000   1.0000   1.0000   1.0000
     1.0000   1.0000   1.0000   1.0000   1.0000   1.0000   1.0000   1.0000
     1.0000   1.0000   1.0000   1.0000   1.0000   1.0000   1.0000   1.0000
     1.0000   1.0000   1.0003   1.0006   0.0000   0.0000   0.0000   0.0000
     0.0000   0.0000

          k = 0.3000 0.1007 0.1873 (  9765 PWs)   bands (ev):

   -11.5930 -11.5636 -11.4706 -11.4463  -9.9796  -9.9648  -9.7853  -9.7804
    -2.8754  -2.8636  -2.6683  -2.6679  -1.4223  -1.3902  -1.0370  -0.9535
    -0.9152  -0.7877  -0.4746  -0.3836   0.4012   0.4038   0.5098   0.6728
     0.7401   0.7778   0.9920   1.0007   2.7588   2.7815   3.0767   3.1052
     6.9331   7.1291

     occupation numbers 
     1.0000   1.0000   1.0000   1.0000   1.0000   1.0000   1.0000   1.0000
     1.0000   1.0000   1.0000   1.0000   1.0000   1.0000   1.0000   1.0000
     1.0000   1.0000   1.0000   1.0000   1.0000   1.0000   1.0000   1.0000
     1.0000   1.0000   1.0001   1.0001   0.0000   0.0000   0.0000   0.0000
     0.0000   0.0000

          k = 0.3000 0.2014 0.0000 (  9759 PWs)   bands (ev):

   -11.6956 -11.6828 -11.2835 -11.2781 -10.2302 -10.2188  -9.5915  -9.5897
    -3.0623  -3.0532  -2.5936  -2.5802  -1.0768  -1.0678  -1.0336  -1.0062
    -0.9043  -0.7353  -0.3855  -0.3000   0.2189   0.3703   0.4141   0.4333
     0.5957   0.6146   0.9156   0.9476   2.8701   2.8728   3.1028   3.1117
     6.9574   7.1358

     occupation numbers 
     1.0000   1.0000   1.0000   1.0000   1.0000   1.0000   1.0000   1.0000
     1.0000   1.0000   1.0000   1.0000   1.0000   1.0000   1.0000   1.0000
     1.0000   1.0000   1.0000   1.0000   1.0000   1.0000   1.0000   1.0000
     1.0000   1.0000   1.0000   1.0000   0.0000   0.0000   0.0000   0.0000
     0.0000   0.0000

          k = 0.3000 0.2014 0.0936 (  9756 PWs)   bands (ev):

   -11.6666 -11.6542 -11.3404 -11.3336 -10.1527 -10.1432  -9.6427  -9.6419
    -3.0166  -3.0092  -2.5756  -2.5667  -1.4469  -1.4413  -0.9358  -0.7502
    -0.5489  -0.5149  -0.4571  -0.3552  -0.0747  -0.0656   0.3414   0.4616
     0.8700   0.8900   1.0637   1.0760   2.6770   2.6780   3.1995   3.2083
     6.9964   7.1930

     occupation numbers 
     1.0000   1.0000   1.0000   1.0000   1.0000   1.0000   1.0000   1.0000
     1.0000   1.0000   1.0000   1.0000   1.0000   1.0000   1.0000   1.0000
     1.0000   1.0000   1.0000   1.0000   1.0000   1.0000   1.0000   1.0000
     1.0000   1.0000   1.0004   1.0005   0.0000   0.0000   0.0000   0.0000
     0.0000   0.0000

          k = 0.3000 0.2014 0.1873 (  9751 PWs)   bands (ev):

   -11.5839 -11.5727 -11.4631 -11.4539  -9.9751  -9.9694  -9.7838  -9.7819
    -2.8730  -2.8685  -2.6692  -2.6690  -1.4245  -1.4107  -1.0244  -0.9895
    -0.7695  -0.6458  -0.6026  -0.4920   0.3907   0.3939   0.5657   0.6235
     0.7479   0.7606   0.9994   1.0031   2.7659   2.7747   3.0856   3.0965
     7.1268   7.2447

     occupation numbers 
     1.0000   1.0000   1.0000   1.0000   1.0000   1.0000   1.0000   1.0000
     1.0000   1.0000   1.0000   1.0000   1.0000   1.0000   1.0000   1.0000
     1.0000   1.0000   1.0000   1.0000   1.0000   1.0000   1.0000   1.0000
     1.0000   1.0000   1.0001   1.0001   0.0000   0.0000   0.0000   0.0000
     0.0000   0.0000

          k = 0.4000 0.0000 0.0000 (  9746 PWs)   bands (ev):

   -11.5670 -11.5373 -11.3329 -11.3309 -10.1124 -10.0828  -9.7775  -9.7634
    -3.1266  -3.1031  -2.9272  -2.8924  -0.9273  -0.8865  -0.8744  -0.8673
    -0.8425  -0.4356  -0.4316  -0.4146   0.0281   0.0967   0.1076   0.1192
     0.2304   0.6407   0.6521   0.8590   3.2467   3.2560   3.3332   3.3507
     7.1291   7.3233

     occupation numbers 
     1.0000   1.0000   1.0000   1.0000   1.0000   1.0000   1.0000   1.0000
     1.0000   1.0000   1.0000   1.0000   1.0000   1.0000   1.0000   1.0000
     1.0000   1.0000   1.0000   1.0000   1.0000   1.0000   1.0000   1.0000
     1.0000   1.0000   1.0000   1.0000   0.0000   0.0000   0.0000   0.0000
     0.0000   0.0000

          k = 0.4000 0.0000 0.0936 (  9760 PWs)   bands (ev):

   -11.5482 -11.5204 -11.3601 -11.3542 -10.0750 -10.0507  -9.8046  -9.7939
    -3.0707  -3.0505  -2.8482  -2.8210  -1.4446  -1.4310  -0.8957  -0.8585
    -0.8209  -0.5146  -0.4293  -0.4155   0.0444   0.0642   0.3220   0.6400
     0.6493   0.7951   0.8138   0.8359   2.9212   2.9310   3.3109   3.3343
     7.1822   7.3970

     occupation numbers 
     1.0000   1.0000   1.0000   1.0000   1.0000   1.0000   1.0000   1.0000
     1.0000   1.0000   1.0000   1.0000   1.0000   1.0000   1.0000   1.0000
     1.0000   1.0000   1.0000   1.0000   1.0000   1.0000   1.0000   1.0000
     1.0000   1.0000   1.0000   1.0000   0.0000   0.0000   0.0000   0.0000
     0.0000   0.0000

          k = 0.4000 0.0000 0.1873 (  9786 PWs)   bands (ev):

   -11.4962 -11.4738 -11.4251 -11.4108  -9.9825  -9.9706  -9.8771  -9.8759
    -2.9088  -2.8943  -2.7634  -2.7595  -1.7016  -1.6894  -1.4297  -1.3949
    -0.8043  -0.6663  -0.4238  -0.4185   0.5071   0.6400   0.6436   0.6875
     0.7667   0.7853   1.2118   1.2245   2.6411   2.6497   2.9593   2.9892
     7.3452   7.6238

     occupation numbers 
     1.0000   1.0000   1.0000   1.0000   1.0000   1.0000   1.0000   1.0000
     1.0000   1.0000   1.0000   1.0000   1.0000   1.0000   1.0000   1.0000
     1.0000   1.0000   1.0000   1.0000   1.0000   1.0000   1.0000   1.0000
     1.0000   1.0000   1.0048   1.0057   0.0000   0.0000   0.0000   0.0000
     0.0000   0.0000

          k = 0.4000 0.1007 0.0000 (  9772 PWs)   bands (ev):

   -11.5642 -11.5402 -11.3327 -11.3310 -10.1096 -10.0856  -9.7762  -9.7648
    -3.1255  -3.1065  -2.9253  -2.8971  -0.9121  -0.8890  -0.8828  -0.8781
    -0.8161  -0.4733  -0.4155  -0.3963   0.0330   0.0875   0.1011   0.1172
     0.2788   0.6032   0.6711   0.8383   3.2480   3.2554   3.3348   3.3490
     6.9759   7.0845

     occupation numbers 
     1.0000   1.0000   1.0000   1.0000   1.0000   1.0000   1.0000   1.0000
     1.0000   1.0000   1.0000   1.0000   1.0000   1.0000   1.0000   1.0000
     1.0000   1.0000   1.0000   1.0000   1.0000   1.0000   1.0000   1.0000
     1.0000   1.0000   1.0000   1.0000   0.0000   0.0000   0.0000   0.0000
     0.0000   0.0000

          k = 0.4000 0.1007 0.0936 (  9771 PWs)   bands (ev):

   -11.5455 -11.5230 -11.3595 -11.3547 -10.0727 -10.0531  -9.8036  -9.7950
    -3.0698  -3.0535  -2.8467  -2.8247  -1.4484  -1.4378  -0.9096  -0.8369
    -0.7956  -0.4867  -0.4581  -0.4068   0.0432   0.0559   0.3508   0.6002
     0.6578   0.7758   0.8217   0.8412   2.9222   2.9301   3.3132   3.3321
     7.0410   7.1621

     occupation numbers 
     1.0000   1.0000   1.0000   1.0000   1.0000   1.0000   1.0000   1.0000
     1.0000   1.0000   1.0000   1.0000   1.0000   1.0000   1.0000   1.0000
     1.0000   1.0000   1.0000   1.0000   1.0000   1.0000   1.0000   1.0000
     1.0000   1.0000   1.0000   1.0000   0.0000   0.0000   0.0000   0.0000
     0.0000   0.0000

          k = 0.4000 0.1007 0.1873 (  9775 PWs)   bands (ev):

   -11.4941 -11.4759 -11.4237 -11.4121  -9.9814  -9.9717  -9.8770  -9.8760
    -2.9082  -2.8965  -2.7636  -2.7605  -1.7064  -1.6959  -1.4343  -1.4044
    -0.7545  -0.6268  -0.4448  -0.4242   0.5092   0.6093   0.6346   0.6713
     0.7797   0.7936   1.2154   1.2260   2.6418   2.6489   2.9621   2.9864
     7.2020   7.2883

     occupation numbers 
     1.0000   1.0000   1.0000   1.0000   1.0000   1.0000   1.0000   1.0000
     1.0000   1.0000   1.0000   1.0000   1.0000   1.0000   1.0000   1.0000
     1.0000   1.0000   1.0000   1.0000   1.0000   1.0000   1.0000   1.0000
     1.0000   1.0000   1.0050   1.0058   0.0000   0.0000   0.0000   0.0000
     0.0000   0.0000

          k = 0.4000 0.2014 0.0000 (  9777 PWs)   bands (ev):

   -11.5568 -11.5476 -11.3322 -11.3315 -10.1023 -10.0931  -9.7727  -9.7683
    -3.1215  -3.1143  -2.9187  -2.9080  -0.8992  -0.8954  -0.8941  -0.8940
    -0.7183  -0.5835  -0.3803  -0.3717   0.0469   0.0670   0.1015   0.1103
     0.3861   0.5068   0.7210   0.7848   3.2509   3.2536   3.3390   3.3444
     6.8250   6.8792

     occupation numbers 
     1.0000   1.0000   1.0000   1.0000   1.0000   1.0000   1.0000   1.0000
     1.0000   1.0000   1.0000   1.0000   1.0000   1.0000   1.0000   1.0000
     1.0000   1.0000   1.0000   1.0000   1.0000   1.0000   1.0000   1.0000
     1.0000   1.0000   1.0000   1.0000   0.0000   0.0000   0.0000   0.0000
     0.0000   0.0000

          k = 0.4000 0.2014 0.0936 (  9774 PWs)   bands (ev):

   -11.5386 -11.5300 -11.3580 -11.3562 -10.0667 -10.0592  -9.8010  -9.7977
    -3.0664  -3.0603  -2.8418  -2.8334  -1.4532  -1.4494  -0.9019  -0.8719
    -0.6742  -0.5460  -0.4323  -0.4020   0.0408   0.0438   0.4220   0.5132
     0.6873   0.7333   0.8340   0.8428   2.9249   2.9278   3.3191   3.3263
     6.8847   6.9287

     occupation numbers 
     1.0000   1.0000   1.0000   1.0000   1.0000   1.0000   1.0000   1.0000
     1.0000   1.0000   1.0000   1.0000   1.0000   1.0000   1.0000   1.0000
     1.0000   1.0000   1.0000   1.0000   1.0000   1.0000   1.0000   1.0000
     1.0000   1.0000   1.0000   1.0000   0.0000   0.0000   0.0000   0.0000
     0.0000   0.0000

          k = 0.4000 0.2014 0.1873 (  9771 PWs)   bands (ev):

   -11.4885 -11.4815 -11.4201 -11.4157  -9.9785  -9.9748  -9.8768  -9.8764
    -2.9060  -2.9015  -2.7637  -2.7625  -1.7122  -1.7078  -1.4362  -1.4238
    -0.6370  -0.5376  -0.5174  -0.4587   0.5209   0.5554   0.6272   0.6425
     0.7972   0.8023   1.2225   1.2268   2.6440   2.6468   2.9696   2.9788
     7.0687   7.1030

     occupation numbers 
     1.0000   1.0000   1.0000   1.0000   1.0000   1.0000   1.0000   1.0000
     1.0000   1.0000   1.0000   1.0000   1.0000   1.0000   1.0000   1.0000
     1.0000   1.0000   1.0000   1.0000   1.0000   1.0000   1.0000   1.0000
     1.0000   1.0000   1.0056   1.0059   0.0000   0.0000   0.0000   0.0000
     0.0000   0.0000

          k =-0.5000 0.0000 0.0000 (  9744 PWs)   bands (ev):

   -11.4325 -11.4325 -11.4179 -11.4179  -9.9554  -9.9554  -9.9335  -9.9335
    -3.0988  -3.0988  -3.0719  -3.0719  -0.7152  -0.7152  -0.6993  -0.6993
    -0.6584  -0.6584  -0.4038  -0.4038  -0.1933  -0.1933  -0.1528  -0.1528
     0.4329   0.4329   0.7380   0.7380   3.4146   3.4146   3.4257   3.4257
     7.2318   7.2319

     occupation numbers 
     1.0000   1.0000   1.0000   1.0000   1.0000   1.0000   1.0000   1.0000
     1.0000   1.0000   1.0000   1.0000   1.0000   1.0000   1.0000   1.0000
     1.0000   1.0000   1.0000   1.0000   1.0000   1.0000   1.0000   1.0000
     1.0000   1.0000   1.0000   1.0000   0.0000   0.0000   0.0000   0.0000
     0.0000   0.0000

          k =-0.5000 0.0000 0.0936 (  9768 PWs)   bands (ev):

   -11.4308 -11.4308 -11.4190 -11.4190  -9.9543  -9.9543  -9.9366  -9.9366
    -3.0225  -3.0225  -2.9972  -2.9972  -1.2271  -1.2271  -1.1960  -1.1960
    -0.6386  -0.6386  -0.4347  -0.4347   0.3979   0.3979   0.4380   0.4380
     0.4678   0.4678   0.7125   0.7125   3.1930   3.1930   3.2116   3.2116
     7.3307   7.3309

     occupation numbers 
     1.0000   1.0000   1.0000   1.0000   1.0000   1.0000   1.0000   1.0000
     1.0000   1.0000   1.0000   1.0000   1.0000   1.0000   1.0000   1.0000
     1.0000   1.0000   1.0000   1.0000   1.0000   1.0000   1.0000   1.0000
     1.0000   1.0000   1.0000   1.0000   0.0000   0.0000   0.0000   0.0000
     0.0000   0.0000

          k =-0.5000 0.0000 0.1873 (  9766 PWs)   bands (ev):

   -11.4267 -11.4267 -11.4221 -11.4221  -9.9504  -9.9504  -9.9436  -9.9436
    -2.8548  -2.8548  -2.8407  -2.8407  -1.7017  -1.7017  -1.6850  -1.6850
    -0.5834  -0.5834  -0.5067  -0.5067   0.5511   0.5511   0.6433   0.6433
     1.0984   1.0984   1.1219   1.1219   2.7354   2.7354   2.7520   2.7520
     7.6248   7.6248

     occupation numbers 
     1.0000   1.0000   1.0000   1.0000   1.0000   1.0000   1.0000   1.0000
     1.0000   1.0000   1.0000   1.0000   1.0000   1.0000   1.0000   1.0000
     1.0000   1.0000   1.0000   1.0000   1.0000   1.0000   1.0000   1.0000
     1.0008   1.0008   1.0012   1.0012   0.0000   0.0000   0.0000   0.0000
     0.0000   0.0000

          k =-0.5000 0.1007 0.0000 (  9766 PWs)   bands (ev):

   -11.4311 -11.4311 -11.4193 -11.4193  -9.9534  -9.9534  -9.9356  -9.9356
    -3.0975  -3.0975  -3.0758  -3.0758  -0.7392  -0.7392  -0.7274  -0.7274
    -0.5886  -0.5886  -0.4066  -0.4066  -0.1911  -0.1911  -0.1595  -0.1595
     0.4628   0.4628   0.7076   0.7076   3.4157   3.4157   3.4247   3.4247
     7.0335   7.0340

     occupation numbers 
     1.0000   1.0000   1.0000   1.0000   1.0000   1.0000   1.0000   1.0000
     1.0000   1.0000   1.0000   1.0000   1.0000   1.0000   1.0000   1.0000
     1.0000   1.0000   1.0000   1.0000   1.0000   1.0000   1.0000   1.0000
     1.0000   1.0000   1.0000   1.0000   0.0000   0.0000   0.0000   0.0000
     0.0000   0.0000

          k =-0.5000 0.1007 0.0936 (  9764 PWs)   bands (ev):

   -11.4296 -11.4296 -11.4201 -11.4201  -9.9526  -9.9526  -9.9383  -9.9383
    -3.0213  -3.0213  -3.0008  -3.0008  -1.2315  -1.2315  -1.2054  -1.2054
    -0.6028  -0.6028  -0.4366  -0.4366   0.3921   0.3921   0.4123   0.4123
     0.5104   0.5104   0.6905   0.6905   3.1948   3.1948   3.2098   3.2098
     7.0949   7.0949

     occupation numbers 
     1.0000   1.0000   1.0000   1.0000   1.0000   1.0000   1.0000   1.0000
     1.0000   1.0000   1.0000   1.0000   1.0000   1.0000   1.0000   1.0000
     1.0000   1.0000   1.0000   1.0000   1.0000   1.0000   1.0000   1.0000
     1.0000   1.0000   1.0000   1.0000   0.0000   0.0000   0.0000   0.0000
     0.0000   0.0000

          k =-0.5000 0.1007 0.1873 (  9782 PWs)   bands (ev):

   -11.4262 -11.4262 -11.4225 -11.4225  -9.9498  -9.9498  -9.9443  -9.9443
    -2.8543  -2.8543  -2.8428  -2.8428  -1.7057  -1.7057  -1.6919  -1.6919
    -0.5577  -0.5577  -0.4945  -0.4945   0.5466   0.5466   0.6211   0.6211
     1.1042   1.1042   1.1234   1.1234   2.7369   2.7369   2.7504   2.7504
     7.2984   7.2984

     occupation numbers 
     1.0000   1.0000   1.0000   1.0000   1.0000   1.0000   1.0000   1.0000
     1.0000   1.0000   1.0000   1.0000   1.0000   1.0000   1.0000   1.0000
     1.0000   1.0000   1.0000   1.0000   1.0000   1.0000   1.0000   1.0000
     1.0009   1.0009   1.0012   1.0012   0.0000   0.0000   0.0000   0.0000
     0.0000   0.0000

          k =-0.5000 0.2014 0.0000 (  9774 PWs)   bands (ev):

   -11.4274 -11.4274 -11.4229 -11.4229  -9.9479  -9.9479  -9.9412  -9.9412
    -3.0929  -3.0929  -3.0847  -3.0847  -0.7588  -0.7588  -0.7497  -0.7497
    -0.4974  -0.4974  -0.4321  -0.4321  -0.1841  -0.1841  -0.1728  -0.1728
     0.5384   0.5384   0.6306   0.6306   3.4186   3.4186   3.4220   3.4220
     6.7944   6.7946

     occupation numbers 
     1.0000   1.0000   1.0000   1.0000   1.0000   1.0000   1.0000   1.0000
     1.0000   1.0000   1.0000   1.0000   1.0000   1.0000   1.0000   1.0000
     1.0000   1.0000   1.0000   1.0000   1.0000   1.0000   1.0000   1.0000
     1.0000   1.0000   1.0000   1.0000   0.0000   0.0000   0.0000   0.0000
     0.0000   0.0000

          k =-0.5000 0.2014 0.0936 (  9780 PWs)   bands (ev):

   -11.4267 -11.4267 -11.4230 -11.4230  -9.9483  -9.9483  -9.9428  -9.9428
    -3.0169  -3.0169  -3.0091  -3.0091  -1.2342  -1.2342  -1.2237  -1.2237
    -0.5251  -0.5251  -0.4605  -0.4605   0.3857   0.3857   0.3934   0.3934
     0.5721   0.5721   0.6363   0.6363   3.1994   3.1994   3.2052   3.2052
     6.8636   6.8649

     occupation numbers 
     1.0000   1.0000   1.0000   1.0000   1.0000   1.0000   1.0000   1.0000
     1.0000   1.0000   1.0000   1.0000   1.0000   1.0000   1.0000   1.0000
     1.0000   1.0000   1.0000   1.0000   1.0000   1.0000   1.0000   1.0000
     1.0000   1.0000   1.0000   1.0000   0.0000   0.0000   0.0000   0.0000
     0.0000   0.0000

          k =-0.5000 0.2014 0.1873 (  9776 PWs)   bands (ev):

   -11.4250 -11.4250 -11.4236 -11.4236  -9.9482  -9.9482  -9.9461  -9.9461
    -2.8520  -2.8520  -2.8476  -2.8476  -1.7100  -1.7100  -1.7046  -1.7046
    -0.5073  -0.5073  -0.4823  -0.4823   0.5475   0.5475   0.5760   0.5760
     1.1157   1.1157   1.1231   1.1231   2.7411   2.7411   2.7462   2.7462
     7.0697   7.1189

     occupation numbers 
     1.0000   1.0000   1.0000   1.0000   1.0000   1.0000   1.0000   1.0000
     1.0000   1.0000   1.0000   1.0000   1.0000   1.0000   1.0000   1.0000
     1.0000   1.0000   1.0000   1.0000   1.0000   1.0000   1.0000   1.0000
     1.0011   1.0011   1.0012   1.0012   0.0000   0.0000   0.0000   0.0000
     0.0000   0.0000

          k =-0.1000 0.0000 0.0936 (  9755 PWs)   bands (ev):

   -11.8768 -11.8240 -11.3884 -11.3477 -10.2596 -10.2186  -9.4117  -9.4003
    -2.9076  -2.8592  -2.0133  -1.9760  -1.4561  -0.8529  -0.8427  -0.7876
    -0.6238  -0.3366  -0.3157  -0.1871   0.0512   0.1247   0.1674   0.6112
     0.7857   0.8341   1.0484   1.1919   2.3671   2.3748   2.9481   2.9944
     6.0534   6.7657

     occupation numbers 
     1.0000   1.0000   1.0000   1.0000   1.0000   1.0000   1.0000   1.0000
     1.0000   1.0000   1.0000   1.0000   1.0000   1.0000   1.0000   1.0000
     1.0000   1.0000   1.0000   1.0000   1.0000   1.0000   1.0000   1.0000
     1.0000   1.0000   1.0003   1.0036   0.0035   0.0031   0.0000   0.0000
     0.0000   0.0000

          k =-0.1000 0.0000 0.1873 (  9771 PWs)   bands (ev):

   -11.7634 -11.7127 -11.5881 -11.5413  -9.9562  -9.9259  -9.6441  -9.6243
    -2.6587  -2.6340  -2.3249  -2.3189  -1.3241  -1.1123  -0.5964  -0.5399
    -0.5231  -0.3674  -0.2284  -0.1820   0.0565   0.0928   0.4320   0.4680
     0.5134   0.7899   0.8355   1.0463   2.5661   2.5838   2.7953   2.8275
     6.2501   6.5268

     occupation numbers 
     1.0000   1.0000   1.0000   1.0000   1.0000   1.0000   1.0000   1.0000
     1.0000   1.0000   1.0000   1.0000   1.0000   1.0000   1.0000   1.0000
     1.0000   1.0000   1.0000   1.0000   1.0000   1.0000   1.0000   1.0000
     1.0000   1.0000   1.0000   1.0003   0.0001   0.0000   0.0000   0.0000
     0.0000   0.0000

          k =-0.1000-0.1007 0.0936 (  9759 PWs)   bands (ev):

   -11.8719 -11.8291 -11.3846 -11.3516 -10.2557 -10.2226  -9.4106  -9.4014
    -2.9033  -2.8642  -2.0101  -1.9799  -1.3883  -0.8700  -0.7987  -0.7642
    -0.7202  -0.3380  -0.3223  -0.2495   0.0982   0.1369   0.1654   0.5552
     0.7895   0.8290   1.0628   1.1782   2.3696   2.3769   2.9532   2.9910
     6.2911   6.8200

     occupation numbers 
     1.0000   1.0000   1.0000   1.0000   1.0000   1.0000   1.0000   1.0000
     1.0000   1.0000   1.0000   1.0000   1.0000   1.0000   1.0000   1.0000
     1.0000   1.0000   1.0000   1.0000   1.0000   1.0000   1.0000   1.0000
     1.0000   1.0000   1.0004   1.0029   0.0033   0.0029   0.0000   0.0000
     0.0000   0.0000

          k =-0.1000-0.1007 0.1873 (  9747 PWs)   bands (ev):

   -11.7586 -11.7176 -11.5837 -11.5458  -9.9533  -9.9288  -9.6422  -9.6262
    -2.6567  -2.6368  -2.3247  -2.3198  -1.2589  -1.0532  -0.6164  -0.5880
    -0.5629  -0.4325  -0.2232  -0.1833   0.0575   0.0890   0.4614   0.4815
     0.5079   0.7971   0.8164   1.0225   2.5699   2.5853   2.7998   2.8267
     6.4739   6.7245

     occupation numbers 
     1.0000   1.0000   1.0000   1.0000   1.0000   1.0000   1.0000   1.0000
     1.0000   1.0000   1.0000   1.0000   1.0000   1.0000   1.0000   1.0000
     1.0000   1.0000   1.0000   1.0000   1.0000   1.0000   1.0000   1.0000
     1.0000   1.0000   1.0000   1.0002   0.0001   0.0000   0.0000   0.0000
     0.0000   0.0000

          k =-0.1000-0.2014 0.0936 (  9765 PWs)   bands (ev):

   -11.8588 -11.8424 -11.3745 -11.3619 -10.2456 -10.2329  -9.4078  -9.4042
    -2.8917  -2.8769  -2.0014  -1.9898  -1.2020  -0.9496  -0.8555  -0.8259
    -0.6126  -0.4259  -0.3344  -0.3201   0.1373   0.1552   0.2483   0.4147
     0.8006   0.8159   1.0993   1.1430   2.3751   2.3785   2.9660   2.9807
     6.8440   6.8510

     occupation numbers 
     1.0000   1.0000   1.0000   1.0000   1.0000   1.0000   1.0000   1.0000
     1.0000   1.0000   1.0000   1.0000   1.0000   1.0000   1.0000   1.0000
     1.0000   1.0000   1.0000   1.0000   1.0000   1.0000   1.0000   1.0000
     1.0000   1.0000   1.0008   1.0017   0.0030   0.0029   0.0000   0.0000
     0.0000   0.0000

          k =-0.1000-0.2014 0.1873 (  9744 PWs)   bands (ev):

   -11.7460 -11.7303 -11.5721 -11.5576  -9.9458  -9.9364  -9.6373  -9.6311
    -2.6511  -2.6435  -2.3239  -2.3220  -1.0797  -0.8931  -0.8371  -0.6886
    -0.5642  -0.5235  -0.2097  -0.1934   0.0643   0.0775   0.4771   0.4935
     0.5771   0.6984   0.8826   0.9606   2.5783   2.5849   2.8106   2.8214
     7.0786   7.2367

     occupation numbers 
     1.0000   1.0000   1.0000   1.0000   1.0000   1.0000   1.0000   1.0000
     1.0000   1.0000   1.0000   1.0000   1.0000   1.0000   1.0000   1.0000
     1.0000   1.0000   1.0000   1.0000   1.0000   1.0000   1.0000   1.0000
     1.0000   1.0000   1.0000   1.0001   0.0001   0.0000   0.0000   0.0000
     0.0000   0.0000

          k =-0.2000 0.0000 0.0936 (  9745 PWs)   bands (ev):

   -11.7975 -11.7493 -11.3656 -11.3318 -10.2236 -10.1868  -9.5047  -9.4995
    -2.9525  -2.9157  -2.2805  -2.2491  -1.3324  -1.1927  -1.1486  -0.7581
    -0.5631  -0.5154  -0.5079  -0.2043   0.1122   0.1720   0.2223   0.6054
     0.9621   0.9987   1.0016   1.0521   2.5504   2.5555   2.9678   3.0089
     6.2976   7.0706

     occupation numbers 
     1.0000   1.0000   1.0000   1.0000   1.0000   1.0000   1.0000   1.0000
     1.0000   1.0000   1.0000   1.0000   1.0000   1.0000   1.0000   1.0000
     1.0000   1.0000   1.0000   1.0000   1.0000   1.0000   1.0000   1.0000
     1.0001   1.0001   1.0001   1.0004   0.0001   0.0001   0.0000   0.0000
     0.0000   0.0000

          k =-0.2000 0.0000 0.1873 (  9740 PWs)   bands (ev):

   -11.6943 -11.6487 -11.5375 -11.4968  -9.9676  -9.9425  -9.7015  -9.6877
    -2.7732  -2.7548  -2.5147  -2.5106  -1.2071  -1.0074  -0.9621  -0.9115
    -0.4959  -0.4764  -0.4461  -0.3460   0.1233   0.1370   0.4534   0.6361
     0.6581   0.7722   0.7743   0.9382   2.8064   2.8338   2.9715   3.0091
     6.4546   6.7293

     occupation numbers 
     1.0000   1.0000   1.0000   1.0000   1.0000   1.0000   1.0000   1.0000
     1.0000   1.0000   1.0000   1.0000   1.0000   1.0000   1.0000   1.0000
     1.0000   1.0000   1.0000   1.0000   1.0000   1.0000   1.0000   1.0000
     1.0000   1.0000   1.0000   1.0000   0.0000   0.0000   0.0000   0.0000
     0.0000   0.0000

          k =-0.2000-0.1007 0.0936 (  9759 PWs)   bands (ev):

   -11.7930 -11.7539 -11.3624 -11.3350 -10.2201 -10.1904  -9.5042  -9.5000
    -2.9494  -2.9198  -2.2782  -2.2527  -1.2735  -1.1917  -1.1586  -0.6995
    -0.6565  -0.5161  -0.5010  -0.2529   0.1505   0.1855   0.2177   0.5557
     0.9617   0.9954   1.0088   1.0495   2.5519   2.5568   2.9723   3.0058
     6.5034   7.1527

     occupation numbers 
     1.0000   1.0000   1.0000   1.0000   1.0000   1.0000   1.0000   1.0000
     1.0000   1.0000   1.0000   1.0000   1.0000   1.0000   1.0000   1.0000
     1.0000   1.0000   1.0000   1.0000   1.0000   1.0000   1.0000   1.0000
     1.0001   1.0001   1.0002   1.0003   0.0001   0.0001   0.0000   0.0000
     0.0000   0.0000

          k =-0.2000-0.1007 0.1873 (  9741 PWs)   bands (ev):

   -11.6900 -11.6531 -11.5337 -11.5007  -9.9653  -9.9449  -9.7002  -9.6890
    -2.7719  -2.7571  -2.5149  -2.5116  -1.1505  -1.0113  -0.9259  -0.8936
    -0.5812  -0.4864  -0.4312  -0.3966   0.1214   0.1336   0.4868   0.6344
     0.6541   0.7435   0.7927   0.9238   2.8096   2.8321   2.9756   3.0063
     6.6454   6.8849

     occupation numbers 
     1.0000   1.0000   1.0000   1.0000   1.0000   1.0000   1.0000   1.0000
     1.0000   1.0000   1.0000   1.0000   1.0000   1.0000   1.0000   1.0000
     1.0000   1.0000   1.0000   1.0000   1.0000   1.0000   1.0000   1.0000
     1.0000   1.0000   1.0000   1.0000   0.0000   0.0000   0.0000   0.0000
     0.0000   0.0000

          k =-0.2000-0.2014 0.0936 (  9756 PWs)   bands (ev):

   -11.7810 -11.7661 -11.3540 -11.3435 -10.2110 -10.1997  -9.5030  -9.5013
    -2.9411  -2.9299  -2.2714  -2.2616  -1.2029  -1.1813  -1.0875  -0.8620
    -0.5548  -0.5137  -0.5068  -0.3843   0.1844   0.2040   0.2855   0.4317
     0.9673   0.9808   1.0272   1.0416   2.5554   2.5577   2.9837   2.9966
     7.0262   7.3701

     occupation numbers 
     1.0000   1.0000   1.0000   1.0000   1.0000   1.0000   1.0000   1.0000
     1.0000   1.0000   1.0000   1.0000   1.0000   1.0000   1.0000   1.0000
     1.0000   1.0000   1.0000   1.0000   1.0000   1.0000   1.0000   1.0000
     1.0001   1.0001   1.0002   1.0003   0.0001   0.0001   0.0000   0.0000
     0.0000   0.0000

          k =-0.2000-0.2014 0.1873 (  9750 PWs)   bands (ev):

   -11.6787 -11.6646 -11.5235 -11.5110  -9.9590  -9.9513  -9.6967  -9.6925
    -2.7682  -2.7626  -2.5148  -2.5135  -1.0183  -0.9652  -0.9624  -0.7730
    -0.7436  -0.5617  -0.4611  -0.4307   0.1209   0.1262   0.5692   0.6360
     0.6446   0.6656   0.8387   0.8871   2.8176   2.8264   2.9860   2.9978
     7.1354   7.2867

     occupation numbers 
     1.0000   1.0000   1.0000   1.0000   1.0000   1.0000   1.0000   1.0000
     1.0000   1.0000   1.0000   1.0000   1.0000   1.0000   1.0000   1.0000
     1.0000   1.0000   1.0000   1.0000   1.0000   1.0000   1.0000   1.0000
     1.0000   1.0000   1.0000   1.0000   0.0000   0.0000   0.0000   0.0000
     0.0000   0.0000

          k =-0.3000 0.0000 0.0936 (  9761 PWs)   bands (ev):

   -11.6803 -11.6403 -11.3480 -11.3260 -10.1633 -10.1325  -9.6436  -9.6409
    -3.0230  -2.9984  -2.5832  -2.5544  -1.4359  -1.4226  -1.1386  -0.6376
    -0.5405  -0.5249  -0.4858  -0.2694  -0.0766  -0.0522   0.2046   0.6082
     0.8561   0.9170   1.0427   1.0825   2.6751   2.6773   3.1889   3.2173
     6.6827   7.4934

     occupation numbers 
     1.0000   1.0000   1.0000   1.0000   1.0000   1.0000   1.0000   1.0000
     1.0000   1.0000   1.0000   1.0000   1.0000   1.0000   1.0000   1.0000
     1.0000   1.0000   1.0000   1.0000   1.0000   1.0000   1.0000   1.0000
[...]
     1.0000   1.0000   1.0000   1.0000   1.0000   1.0000   1.0000   1.0000
     1.0000   1.0000   1.0000   1.0000   1.0000   1.0000   1.0000   1.0000
     1.0000   1.0000   1.0000   1.0000   1.0000   1.0000   1.0000   1.0000
     1.0000   1.0000   1.0003   1.0006   0.0000   0.0000   0.0000   0.0000
     0.0000   0.0000

          k =-0.3000-0.1007 0.1873 (  9765 PWs)   bands (ev):

   -11.5930 -11.5636 -11.4706 -11.4463  -9.9796  -9.9648  -9.7853  -9.7804
    -2.8754  -2.8636  -2.6683  -2.6679  -1.4223  -1.3902  -1.0370  -0.9535
    -0.9152  -0.7877  -0.4746  -0.3836   0.4012   0.4038   0.5098   0.6728
     0.7401   0.7778   0.9920   1.0007   2.7588   2.7816   3.0767   3.1052
     6.9331   7.1291

     occupation numbers 
     1.0000   1.0000   1.0000   1.0000   1.0000   1.0000   1.0000   1.0000
     1.0000   1.0000   1.0000   1.0000   1.0000   1.0000   1.0000   1.0000
     1.0000   1.0000   1.0000   1.0000   1.0000   1.0000   1.0000   1.0000
     1.0000   1.0000   1.0001   1.0001   0.0000   0.0000   0.0000   0.0000
     0.0000   0.0000

          k =-0.3000-0.2014 0.0936 (  9756 PWs)   bands (ev):

   -11.6666 -11.6542 -11.3404 -11.3336 -10.1527 -10.1432  -9.6427  -9.6419
    -3.0166  -3.0092  -2.5756  -2.5667  -1.4469  -1.4413  -0.9358  -0.7502
    -0.5489  -0.5149  -0.4571  -0.3552  -0.0747  -0.0656   0.3414   0.4616
     0.8700   0.8900   1.0637   1.0760   2.6770   2.6780   3.1995   3.2083
     6.9967   7.1929

     occupation numbers 
     1.0000   1.0000   1.0000   1.0000   1.0000   1.0000   1.0000   1.0000
     1.0000   1.0000   1.0000   1.0000   1.0000   1.0000   1.0000   1.0000
     1.0000   1.0000   1.0000   1.0000   1.0000   1.0000   1.0000   1.0000
     1.0000   1.0000   1.0004   1.0005   0.0000   0.0000   0.0000   0.0000
     0.0000   0.0000

          k =-0.3000-0.2014 0.1873 (  9751 PWs)   bands (ev):

   -11.5839 -11.5727 -11.4631 -11.4539  -9.9751  -9.9694  -9.7838  -9.7819
    -2.8730  -2.8685  -2.6692  -2.6690  -1.4245  -1.4107  -1.0244  -0.9895
    -0.7695  -0.6458  -0.6026  -0.4920   0.3907   0.3939   0.5657   0.6235
     0.7479   0.7606   0.9994   1.0031   2.7659   2.7747   3.0856   3.0965
     7.1267   7.2447

     occupation numbers 
     1.0000   1.0000   1.0000   1.0000   1.0000   1.0000   1.0000   1.0000
     1.0000   1.0000   1.0000   1.0000   1.0000   1.0000   1.0000   1.0000
     1.0000   1.0000   1.0000   1.0000   1.0000   1.0000   1.0000   1.0000
     1.0000   1.0000   1.0001   1.0001   0.0000   0.0000   0.0000   0.0000
     0.0000   0.0000

          k =-0.4000 0.0000 0.0936 (  9760 PWs)   bands (ev):

   -11.5482 -11.5204 -11.3601 -11.3542 -10.0750 -10.0507  -9.8046  -9.7939
    -3.0707  -3.0505  -2.8482  -2.8210  -1.4446  -1.4310  -0.8957  -0.8585
    -0.8209  -0.5146  -0.4293  -0.4155   0.0444   0.0642   0.3220   0.6400
     0.6493   0.7951   0.8138   0.8359   2.9212   2.9310   3.3109   3.3343
     7.1826   7.3965

     occupation numbers 
     1.0000   1.0000   1.0000   1.0000   1.0000   1.0000   1.0000   1.0000
     1.0000   1.0000   1.0000   1.0000   1.0000   1.0000   1.0000   1.0000
     1.0000   1.0000   1.0000   1.0000   1.0000   1.0000   1.0000   1.0000
     1.0000   1.0000   1.0000   1.0000   0.0000   0.0000   0.0000   0.0000
     0.0000   0.0000

          k =-0.4000 0.0000 0.1873 (  9786 PWs)   bands (ev):

   -11.4962 -11.4738 -11.4251 -11.4108  -9.9825  -9.9706  -9.8771  -9.8759
    -2.9088  -2.8943  -2.7634  -2.7595  -1.7016  -1.6894  -1.4297  -1.3949
    -0.8043  -0.6663  -0.4238  -0.4185   0.5071   0.6400   0.6436   0.6875
     0.7667   0.7853   1.2118   1.2245   2.6411   2.6497   2.9593   2.9892
     7.3452   7.6236

     occupation numbers 
     1.0000   1.0000   1.0000   1.0000   1.0000   1.0000   1.0000   1.0000
     1.0000   1.0000   1.0000   1.0000   1.0000   1.0000   1.0000   1.0000
     1.0000   1.0000   1.0000   1.0000   1.0000   1.0000   1.0000   1.0000
     1.0000   1.0000   1.0048   1.0057   0.0000   0.0000   0.0000   0.0000
     0.0000   0.0000

          k =-0.4000-0.1007 0.0936 (  9771 PWs)   bands (ev):

   -11.5455 -11.5230 -11.3595 -11.3547 -10.0727 -10.0531  -9.8036  -9.7950
    -3.0698  -3.0535  -2.8467  -2.8247  -1.4484  -1.4378  -0.9096  -0.8369
    -0.7956  -0.4867  -0.4581  -0.4068   0.0432   0.0559   0.3508   0.6002
     0.6578   0.7758   0.8217   0.8412   2.9222   2.9301   3.3132   3.3321
     7.0411   7.1620

     occupation numbers 
     1.0000   1.0000   1.0000   1.0000   1.0000   1.0000   1.0000   1.0000
     1.0000   1.0000   1.0000   1.0000   1.0000   1.0000   1.0000   1.0000
     1.0000   1.0000   1.0000   1.0000   1.0000   1.0000   1.0000   1.0000
     1.0000   1.0000   1.0000   1.0000   0.0000   0.0000   0.0000   0.0000
     0.0000   0.0000

          k =-0.4000-0.1007 0.1873 (  9775 PWs)   bands (ev):

   -11.4941 -11.4759 -11.4237 -11.4121  -9.9814  -9.9717  -9.8770  -9.8760
    -2.9082  -2.8966  -2.7636  -2.7605  -1.7064  -1.6959  -1.4343  -1.4044
    -0.7545  -0.6268  -0.4448  -0.4242   0.5092   0.6093   0.6346   0.6713
     0.7797   0.7936   1.2153   1.2260   2.6418   2.6489   2.9621   2.9864
     7.2019   7.2882

     occupation numbers 
     1.0000   1.0000   1.0000   1.0000   1.0000   1.0000   1.0000   1.0000
     1.0000   1.0000   1.0000   1.0000   1.0000   1.0000   1.0000   1.0000
     1.0000   1.0000   1.0000   1.0000   1.0000   1.0000   1.0000   1.0000
     1.0000   1.0000   1.0050   1.0058   0.0000   0.0000   0.0000   0.0000
     0.0000   0.0000

          k =-0.4000-0.2014 0.0936 (  9774 PWs)   bands (ev):

   -11.5386 -11.5300 -11.3580 -11.3562 -10.0667 -10.0592  -9.8010  -9.7977
    -3.0664  -3.0603  -2.8418  -2.8334  -1.4532  -1.4494  -0.9019  -0.8719
    -0.6742  -0.5460  -0.4323  -0.4020   0.0409   0.0438   0.4220   0.5132
     0.6873   0.7333   0.8340   0.8428   2.9249   2.9278   3.3191   3.3263
     6.8847   6.9287

     occupation numbers 
     1.0000   1.0000   1.0000   1.0000   1.0000   1.0000   1.0000   1.0000
     1.0000   1.0000   1.0000   1.0000   1.0000   1.0000   1.0000   1.0000
     1.0000   1.0000   1.0000   1.0000   1.0000   1.0000   1.0000   1.0000
     1.0000   1.0000   1.0000   1.0000   0.0000   0.0000   0.0000   0.0000
     0.0000   0.0000

          k =-0.4000-0.2014 0.1873 (  9771 PWs)   bands (ev):

   -11.4885 -11.4815 -11.4201 -11.4157  -9.9785  -9.9748  -9.8768  -9.8764
    -2.9060  -2.9015  -2.7637  -2.7625  -1.7122  -1.7078  -1.4362  -1.4238
    -0.6370  -0.5376  -0.5174  -0.4587   0.5209   0.5554   0.6272   0.6425
     0.7972   0.8023   1.2225   1.2268   2.6440   2.6468   2.9696   2.9788
     7.0689   7.1453

     occupation numbers 
     1.0000   1.0000   1.0000   1.0000   1.0000   1.0000   1.0000   1.0000
     1.0000   1.0000   1.0000   1.0000   1.0000   1.0000   1.0000   1.0000
     1.0000   1.0000   1.0000   1.0000   1.0000   1.0000   1.0000   1.0000
     1.0000   1.0000   1.0056   1.0059   0.0000   0.0000   0.0000   0.0000
     0.0000   0.0000

     the Fermi energy is     1.9511 ev

     WARNING: integrated charge=    56.00919152, expected=    56.00000000

!    total energy              =   -3031.29814339 Ry
     total all-electron energy =   -113863.277708 Ry
     estimated scf accuracy    <          7.0E-11 Ry
     smearing contrib. (-TS)   =       0.00014639 Ry
     internal energy E=F+TS    =   -3031.29828977 Ry

     The total energy is F=E-TS. E is the sum of the following terms:
     one-electron contribution =     -13.51739327 Ry
     hartree contribution      =      30.35354118 Ry
     xc contribution           =    -333.32647257 Ry
     ewald contribution        =    -150.62195194 Ry
     one-center paw contrib.   =   -2564.18601317 Ry
      -> PAW hartree energy AE =      36.25372769 Ry
      -> PAW hartree energy PS =     -36.47562131 Ry
      -> PAW xc energy AE      =   -1443.11836352 Ry
      -> PAW xc energy PS      =     161.24725058 Ry
      -> total E_H with PAW    =      30.13164756 Ry
      -> total E_XC with PAW   =   -1615.19758551 Ry

     convergence has been achieved in  10 iterations

     negative rho (up, down):  1.133E-04 0.000E+00

     Forces acting on atoms (cartesian axes, Ry/au):

     atom    1 type  1   force =    -0.00121195    0.00000000    0.00100334
     atom    2 type  1   force =     0.00121195    0.00000000   -0.00100334
     atom    3 type  1   force =     0.00121175    0.00000000    0.00100266
     atom    4 type  1   force =    -0.00121175    0.00000000   -0.00100266
     atom    5 type  1   force =    -0.00121200    0.00000000    0.00100330
     atom    6 type  1   force =     0.00121200    0.00000000   -0.00100330
     atom    7 type  1   force =     0.00121171    0.00000000    0.00100248
     atom    8 type  1   force =    -0.00121171    0.00000000   -0.00100248
     The non-local contrib.  to forces
     atom    1 type  1   force =     0.06857151    0.00000000   -0.06654289
     atom    2 type  1   force =    -0.06857151    0.00000000    0.06654289
     atom    3 type  1   force =    -0.06857149    0.00000000   -0.06654307
     atom    4 type  1   force =     0.06857149    0.00000000    0.06654307
     atom    5 type  1   force =     0.06857151    0.00000000   -0.06654283
     atom    6 type  1   force =    -0.06857151    0.00000000    0.06654283
     atom    7 type  1   force =    -0.06857151    0.00000000   -0.06654325
     atom    8 type  1   force =     0.06857151    0.00000000    0.06654325
     The ionic contribution  to forces
     atom    1 type  1   force =    -0.65470876    0.00000000    0.58808769
     atom    2 type  1   force =     0.65470876    0.00000000   -0.58808769
     atom    3 type  1   force =     0.65470876    0.00000000    0.58808769
     atom    4 type  1   force =    -0.65470876    0.00000000   -0.58808769
     atom    5 type  1   force =    -0.65470876    0.00000000    0.58808769
     atom    6 type  1   force =     0.65470876    0.00000000   -0.58808769
     atom    7 type  1   force =     0.65470876    0.00000000    0.58808769
     atom    8 type  1   force =    -0.65470876    0.00000000   -0.58808769
     The local contribution  to forces
     atom    1 type  1   force =     0.60233999    0.00000000   -0.53407298
     atom    2 type  1   force =    -0.60233999    0.00000000    0.53407298
     atom    3 type  1   force =    -0.60233987    0.00000000   -0.53407362
     atom    4 type  1   force =     0.60233987    0.00000000    0.53407362
     atom    5 type  1   force =     0.60233984    0.00000000   -0.53407280
     atom    6 type  1   force =    -0.60233984    0.00000000    0.53407280
     atom    7 type  1   force =    -0.60234006    0.00000000   -0.53407511
     atom    8 type  1   force =     0.60234006    0.00000000    0.53407511
     The core correction contribution to forces
     atom    1 type  1   force =    -0.01741482    0.00000000    0.01353300
     atom    2 type  1   force =     0.01741482    0.00000000   -0.01353300
     atom    3 type  1   force =     0.01741488    0.00000000    0.01353283
     atom    4 type  1   force =    -0.01741488    0.00000000   -0.01353283
     atom    5 type  1   force =    -0.01741484   -0.00000000    0.01353308
     atom    6 type  1   force =     0.01741484   -0.00000000   -0.01353308
     atom    7 type  1   force =     0.01741488   -0.00000000    0.01353252
     atom    8 type  1   force =    -0.01741488   -0.00000000   -0.01353252
     The Hubbard contrib.    to forces
     atom    1 type  1   force =     0.00000000    0.00000000    0.00000000
     atom    2 type  1   force =     0.00000000    0.00000000    0.00000000
     atom    3 type  1   force =     0.00000000    0.00000000    0.00000000
     atom    4 type  1   force =     0.00000000    0.00000000    0.00000000
     atom    5 type  1   force =     0.00000000    0.00000000    0.00000000
     atom    6 type  1   force =     0.00000000    0.00000000    0.00000000
     atom    7 type  1   force =     0.00000000    0.00000000    0.00000000
     atom    8 type  1   force =     0.00000000    0.00000000    0.00000000
     The SCF correction term to forces
     atom    1 type  1   force =     0.00000013   -0.00000000   -0.00000147
     atom    2 type  1   force =    -0.00000013    0.00000000    0.00000147
     atom    3 type  1   force =    -0.00000053    0.00000000   -0.00000116
     atom    4 type  1   force =     0.00000053    0.00000000    0.00000116
     atom    5 type  1   force =     0.00000026   -0.00000000   -0.00000184
     atom    6 type  1   force =    -0.00000026   -0.00000000    0.00000184
     atom    7 type  1   force =    -0.00000037    0.00000000    0.00000063
     atom    8 type  1   force =     0.00000037    0.00000000   -0.00000063

     Total force =     0.004449     Total SCF correction =     0.000004


     Computing stress (Cartesian axis) and pressure


     negative rho (up, down):  1.133E-04 0.000E+00
          total   stress  (Ry/bohr**3)                   (kbar)     P=       -0.19
  -0.00000270   0.00000000   0.00000000           -0.40        0.00        0.00
   0.00000000  -0.00000185   0.00000000            0.00       -0.27        0.00
   0.00000000   0.00000000   0.00000070            0.00        0.00        0.10

     kinetic stress (kbar)   1749.72      0.00      0.00
                                0.00   1919.61      0.00
                                0.00      0.00   1622.41

     local   stress (kbar)   1092.07      0.00      0.00
                                0.00   4957.99     -0.00
                                0.00     -0.00    154.55

     nonloc. stress (kbar)   -675.89      0.00     -0.00
                                0.00   -706.98      0.00
                               -0.00      0.00   -651.13

     hartree stress (kbar)    888.30     -0.00     -0.00
                               -0.00   -420.97      0.00
                               -0.00      0.00   1131.92

     exc-cor stress (kbar)  14355.88     -0.00     -0.00
                               -0.00  14350.74     -0.00
                               -0.00     -0.00  14357.14

     corecor stress (kbar) -15395.74      0.00     -0.00
                                0.00 -15414.20      0.00
                               -0.00      0.00 -15380.09

     ewald   stress (kbar)  -2014.75     -0.00     -0.00
                               -0.00  -4686.47      0.00
                               -0.00      0.00  -1234.70

     hubbard stress (kbar)      0.00      0.00      0.00
                                0.00      0.00      0.00
                                0.00      0.00      0.00

     DFT-D   stress (kbar)      0.00      0.00      0.00
                                0.00      0.00      0.00
                                0.00      0.00      0.00

     XDM     stress (kbar)      0.00      0.00      0.00
                                0.00      0.00      0.00
                                0.00      0.00      0.00

     dft-nl  stress (kbar)      0.00      0.00      0.00
                                0.00      0.00      0.00
                                0.00      0.00      0.00

     TS-vdW  stress (kbar)      0.00      0.00      0.00
                                0.00      0.00      0.00
                                0.00      0.00      0.00

     MDB     stress (kbar)      0.00      0.00      0.00
                                0.00      0.00      0.00
                                0.00      0.00      0.00

     3D-RISM stress (kbar)      0.00      0.00      0.00
                                0.00      0.00      0.00
                                0.00      0.00      0.00


     Writing all to output data dir ../out/aiida.save/ :
     XML data file, charge density, pseudopotentials, collected wavefunctions
 
     init_run     :      6.04s CPU      6.32s WALL (       1 calls)
     electrons    :    193.42s CPU    193.59s WALL (       1 calls)
     forces       :      1.76s CPU      1.76s WALL (       1 calls)
     stress       :      5.74s CPU      5.75s WALL (       1 calls)

     Called by init_run:
     wfcinit      :      4.92s CPU      5.07s WALL (       1 calls)
     wfcinit:atom :      0.56s CPU      0.57s WALL (      78 calls)
     wfcinit:wfcr :      3.97s CPU      4.07s WALL (      78 calls)
     potinit      :      0.78s CPU      0.81s WALL (       1 calls)
     hinit0       :      0.18s CPU      0.22s WALL (       1 calls)

     Called by electrons:
     c_bands      :    166.33s CPU    166.45s WALL (      11 calls)
     sum_band     :     24.00s CPU     24.02s WALL (      11 calls)
     v_of_rho     :      0.34s CPU      0.37s WALL (      11 calls)
     v_h          :      0.05s CPU      0.05s WALL (      11 calls)
     v_xc         :      0.35s CPU      0.37s WALL (      13 calls)
     newd         :      0.44s CPU      0.48s WALL (      11 calls)
                                        0.48s GPU  (      11 calls)
     PAW_pot      :      2.43s CPU      2.43s WALL (      11 calls)
     mix_rho      :      0.21s CPU      0.23s WALL (      11 calls)

     Called by c_bands:
     init_us_2    :      6.55s CPU      6.56s WALL (    1950 calls)
     cegterg      :    158.60s CPU    158.71s WALL (     858 calls)

     Called by sum_band:
     sum_band:wei :      0.03s CPU      0.03s WALL (      11 calls)
     sum_band:loo :     23.50s CPU     23.51s WALL (      11 calls)
     sum_band:buf :      0.73s CPU      0.73s WALL (     858 calls)
     sum_band:ini :      2.85s CPU      2.85s WALL (     858 calls)
     sum_band:cal :      2.54s CPU      2.54s WALL (     858 calls)
     sum_band:bec :      3.34s CPU      3.34s WALL (     858 calls)
     addusdens    :      0.33s CPU      0.33s WALL (      11 calls)
                                        0.33s GPU  (      11 calls)
     addusd:skk   :      0.03s CPU      0.03s WALL (      11 calls)
                                        0.03s GPU  (      11 calls)

     Called by *egterg:
     cdiaghg      :     15.68s CPU     16.01s WALL (    3967 calls)
                                       15.48s GPU  (    3967 calls)
     cegterg:over :     26.21s CPU     26.22s WALL (    3187 calls)
     cegterg:upda :     12.40s CPU     12.41s WALL (    3187 calls)
     cegterg:last :      6.33s CPU      6.33s WALL (    1646 calls)
     h_psi        :     78.21s CPU     78.92s WALL (    4123 calls)
                                       78.29s GPU  (    4123 calls)
     s_psi        :     10.41s CPU     10.42s WALL (    4123 calls)
     g_psi        :      0.01s CPU      0.81s WALL (    3187 calls)
                                        0.16s GPU  (    3187 calls)

     Called by h_psi:
     h_psi:calbec :      7.58s CPU      8.17s WALL (    4123 calls)
                                        6.14s GPU  (    4123 calls)
     vloc_psi     :     56.78s CPU     57.45s WALL (    4123 calls)
                                       56.87s GPU  (    4123 calls)
     add_vuspsi   :      6.39s CPU      9.82s WALL (    4123 calls)
                                        9.26s GPU  (    4123 calls)

     General routines
     calbec       :     14.00s CPU     14.03s WALL (    6307 calls)
     fft          :      0.46s CPU      0.58s WALL (     167 calls)
                                        0.30s GPU  (     156 calls)
     ffts         :      0.21s CPU      0.21s WALL (      22 calls)
                                        0.01s GPU  (      11 calls)
     fftw         :     33.89s CPU     40.32s WALL (   18676 calls)
                                       34.78s GPU  (   18676 calls)
     interpolate  :      0.45s CPU      0.47s WALL (      11 calls)
 
     Parallel routines

     PAW routines
     PAW_pot      :      2.43s CPU      2.43s WALL (      11 calls)
     PAW_symme    :      0.00s CPU      0.00s WALL (      22 calls)
 
     PWSCF        :   3m27.25s CPU   3m27.88s WALL

 
   This run was terminated on:  17:14:22  16May2025            

=------------------------------------------------------------------------------=
   JOB DONE.
=------------------------------------------------------------------------------=
