
     Program PWSCF v.7.4 starts on  9Apr2025 at 16:11: 3 

     This program is part of the open-source Quantum ESPRESSO suite
     for quantum simulation of materials; please cite
         "P. Giannozzi et al., J. Phys.:Condens. Matter 21 395502 (2009);
         "P. Giannozzi et al., J. Phys.:Condens. Matter 29 465901 (2017);
         "P. Giannozzi et al., J. Chem. Phys. 152 154105 (2020);
          URL http://www.quantum-espresso.org", 
     in publications or presentations arising from this work. More details at
     http://www.quantum-espresso.org/quote

     Parallel version (MPI), running on     2 processors

     MPI processes distributed on     1 nodes
     27308 MiB available memory on the printing compute node when the environment starts
 
     Waiting for input...
     Reading input from standard input

     Current dimensions of program PWSCF are:
     Max number of different atomic species (ntypx) = 10
     Max number of k-points (npk) =  40000
     Max angular momentum in pseudopotentials (lmaxx) =  4
     file Pb.pbe-dn-kjpaw_psl.0.2.2.UPF: wavefunction(s)  6S renormalized
     Message from routine setup:
     using ibrav=0 with symmetry is DISCOURAGED, use correct ibrav instead
 
     R & G space division:  proc/nbgrp/npool/nimage =       2
     Subspace diagonalization in iterative solution of the eigenvalue problem:
     a serial algorithm will be used

 
     Parallelization info
     --------------------
     sticks:   dense  smooth     PW     G-vecs:    dense   smooth      PW
     Min         501     249     81                10269     3694     681
     Max         502     250     82                10270     3697     682
     Sum        1003     499    163                20539     7391    1363
 
     Using Slab Decomposition
 


     bravais-lattice index     =            0
     lattice parameter (alat)  =       6.7070  a.u.
     unit-cell volume          =     213.3415 (a.u.)^3
     number of atoms/cell      =            1
     number of atomic types    =            1
     number of electrons       =        14.00
     number of Kohn-Sham states=           11
     kinetic-energy cutoff     =      40.0000  Ry
     charge density cutoff     =     320.0000  Ry
     scf convergence threshold =      2.0E-10
     mixing beta               =       0.4000
     number of iterations used =            8  plain     mixing
     energy convergence thresh.=      1.0E-05
     force convergence thresh. =      1.0E-04
     press convergence thresh. =      5.0E-02
     Exchange-correlation= SLA  PW   PBX  PBC
                           (   1   4   3   4   0   0   0)
     nstep                     =           50


     GPU acceleration is ACTIVE.  1 visible GPUs per MPI rank
     GPU-aware MPI enabled


     GPU used by master process:

        Device Number: 0
        Device name: NVIDIA RTX A2000 12GB
        Compute capability : 86
        Ratio of single to double precision performance  : 32
        Memory Clock Rate (KHz): 6001000
        Memory Bus Width (bits): 192
        Peak Memory Bandwidth (GB/s): 288.05

     celldm(1)=   6.707028  celldm(2)=   0.000000  celldm(3)=   0.000000
     celldm(4)=   0.000000  celldm(5)=   0.000000  celldm(6)=   0.000000

     crystal axes: (cart. coord. in units of alat)
               a(1) = (  -0.707107  -0.707107   0.000000 )  
               a(2) = (  -0.707107   0.000000  -0.707107 )  
               a(3) = (  -0.000000  -0.707107  -0.707107 )  

     reciprocal axes: (cart. coord. in units 2 pi/alat)
               b(1) = ( -0.707107 -0.707107  0.707107 )  
               b(2) = ( -0.707107  0.707107 -0.707107 )  
               b(3) = (  0.707107 -0.707107 -0.707107 )  


     PseudoPot. # 1 for Pb read from file:
     ../pseudo/Pb.pbe-dn-kjpaw_psl.0.2.2.UPF
     MD5 check sum: 9d431e6316058b74ade52399a6cf67da
     Pseudo is Projector augmented-wave + core cor, Zval = 14.0
     Generated using "atomic" code by A. Dal Corso  v.5.0.99 svn rev. 10869
     Shape of augmentation charge: PSQ
     Using radial grid of 1281 points,  6 beta functions with: 
                l(1) =   0
                l(2) =   0
                l(3) =   1
                l(4) =   1
                l(5) =   2
                l(6) =   2
     Q(r) pseudized with 0 coefficients 


     atomic species   valence    mass     pseudopotential
     Pb               14.00   207.20000     Pb( 1.00)

     48 Sym. Ops., with inversion, found


                                    s                        frac. trans.

      isym =  1     identity                                     

 cryst.   s( 1) = (     1          0          0      )
                  (     0          1          0      )
                  (     0          0          1      )

 cart.    s( 1) = (  1.0000000  0.0000000 -0.0000000 )
                  (  0.0000000  1.0000000 -0.0000000 )
                  (  0.0000000 -0.0000000  1.0000000 )


      isym =  2     180 deg rotation - cart. axis [0,0,1]        

 cryst.   s( 2) = (    -1          0          0      )
                  (    -1          0          1      )
                  (    -1          1          0      )

 cart.    s( 2) = ( -1.0000000 -0.0000000 -0.0000000 )
                  ( -0.0000000 -1.0000000 -0.0000000 )
                  ( -0.0000000  0.0000000  1.0000000 )


      isym =  3     180 deg rotation - cart. axis [0,1,0]        

 cryst.   s( 3) = (     0         -1          1      )
                  (     0         -1          0      )
                  (     1         -1          0      )

 cart.    s( 3) = ( -1.0000000  0.0000000  0.0000000 )
                  ( -0.0000000  1.0000000  0.0000000 )
                  ( -0.0000000 -0.0000000 -1.0000000 )


      isym =  4     180 deg rotation - cart. axis [1,0,0]        

 cryst.   s( 4) = (     0          1         -1      )
                  (     1          0         -1      )
                  (     0          0         -1      )

 cart.    s( 4) = (  1.0000000 -0.0000000  0.0000000 )
                  (  0.0000000 -1.0000000  0.0000000 )
                  (  0.0000000  0.0000000 -1.0000000 )


      isym =  5     180 deg rotation - cart. axis [1,1,0]        

 cryst.   s( 5) = (     1          0          0      )
                  (     1         -1          0      )
                  (     1          0         -1      )

 cart.    s( 5) = (  0.0000000  1.0000000  0.0000000 )
                  (  1.0000000  0.0000000  0.0000000 )
                  ( -0.0000000  0.0000000 -1.0000000 )


      isym =  6     180 deg rotation - cart. axis [1,-1,0]       

 cryst.   s( 6) = (    -1          0          0      )
                  (     0          0         -1      )
                  (     0         -1          0      )

 cart.    s( 6) = ( -0.0000000 -1.0000000  0.0000000 )
                  ( -1.0000000 -0.0000000  0.0000000 )
                  (  0.0000000 -0.0000000 -1.0000000 )


      isym =  7      90 deg rotation - cart. axis [0,0,-1]       

 cryst.   s( 7) = (     0          1         -1      )
                  (    -1          1          0      )
                  (     0          1          0      )

 cart.    s( 7) = ( -0.0000000  1.0000000 -0.0000000 )
                  ( -1.0000000  0.0000000 -0.0000000 )
                  (  0.0000000  0.0000000  1.0000000 )


      isym =  8      90 deg rotation - cart. axis [0,0,1]        

 cryst.   s( 8) = (     0         -1          1      )
                  (     0          0          1      )
                  (    -1          0          1      )

 cart.    s( 8) = (  0.0000000 -1.0000000 -0.0000000 )
                  (  1.0000000 -0.0000000 -0.0000000 )
                  ( -0.0000000 -0.0000000  1.0000000 )


      isym =  9     180 deg rotation - cart. axis [1,0,1]        

 cryst.   s( 9) = (    -1          1          0      )
                  (     0          1          0      )
                  (     0          1         -1      )

 cart.    s( 9) = ( -0.0000000 -0.0000000  1.0000000 )
                  ( -0.0000000 -1.0000000  0.0000000 )
                  (  1.0000000  0.0000000  0.0000000 )


      isym = 10     180 deg rotation - cart. axis [-1,0,1]       

 cryst.   s(10) = (     0          0         -1      )
                  (     0         -1          0      )
                  (    -1          0          0      )

 cart.    s(10) = (  0.0000000 -0.0000000 -1.0000000 )
                  (  0.0000000 -1.0000000 -0.0000000 )
                  ( -1.0000000  0.0000000 -0.0000000 )


      isym = 11      90 deg rotation - cart. axis [0,1,0]        

 cryst.   s(11) = (     1         -1          0      )
                  (     1          0         -1      )
                  (     1          0          0      )

 cart.    s(11) = (  0.0000000  0.0000000  1.0000000 )
                  (  0.0000000  1.0000000  0.0000000 )
                  ( -1.0000000 -0.0000000  0.0000000 )


      isym = 12      90 deg rotation - cart. axis [0,-1,0]       

 cryst.   s(12) = (     0          0          1      )
                  (    -1          0          1      )
                  (     0         -1          1      )

 cart.    s(12) = ( -0.0000000  0.0000000 -1.0000000 )
                  ( -0.0000000  1.0000000 -0.0000000 )
                  (  1.0000000 -0.0000000 -0.0000000 )


      isym = 13     180 deg rotation - cart. axis [0,1,1]        

 cryst.   s(13) = (    -1          0          1      )
                  (     0         -1          1      )
                  (     0          0          1      )

 cart.    s(13) = ( -1.0000000 -0.0000000  0.0000000 )
                  ( -0.0000000 -0.0000000  1.0000000 )
                  ( -0.0000000  1.0000000 -0.0000000 )


      isym = 14     180 deg rotation - cart. axis [0,1,-1]       

 cryst.   s(14) = (     0         -1          0      )
                  (    -1          0          0      )
                  (     0          0         -1      )

 cart.    s(14) = ( -1.0000000  0.0000000 -0.0000000 )
                  ( -0.0000000  0.0000000 -1.0000000 )
                  ( -0.0000000 -1.0000000  0.0000000 )


      isym = 15      90 deg rotation - cart. axis [-1,0,0]       

 cryst.   s(15) = (     1          0         -1      )
                  (     1          0          0      )
                  (     1         -1          0      )

 cart.    s(15) = (  1.0000000  0.0000000  0.0000000 )
                  (  0.0000000  0.0000000  1.0000000 )
                  (  0.0000000 -1.0000000 -0.0000000 )


      isym = 16      90 deg rotation - cart. axis [1,0,0]        

 cryst.   s(16) = (     0          1          0      )
                  (     0          1         -1      )
                  (    -1          1          0      )

 cart.    s(16) = (  1.0000000 -0.0000000 -0.0000000 )
                  (  0.0000000 -0.0000000 -1.0000000 )
                  (  0.0000000  1.0000000  0.0000000 )


      isym = 17     120 deg rotation - cart. axis [-1,-1,-1]     

 cryst.   s(17) = (     0          1          0      )
                  (     0          0          1      )
                  (     1          0          0      )

 cart.    s(17) = ( -0.0000000  1.0000000  0.0000000 )
                  ( -0.0000000  0.0000000  1.0000000 )
                  (  1.0000000  0.0000000 -0.0000000 )


      isym = 18     120 deg rotation - cart. axis [-1,1,1]       

 cryst.   s(18) = (     0         -1          0      )
                  (     1         -1          0      )
                  (     0         -1          1      )

 cart.    s(18) = (  0.0000000 -1.0000000  0.0000000 )
                  (  0.0000000 -0.0000000  1.0000000 )
                  ( -1.0000000 -0.0000000 -0.0000000 )


      isym = 19     120 deg rotation - cart. axis [1,1,-1]       

 cryst.   s(19) = (     1          0         -1      )
                  (     0          0         -1      )
                  (     0          1         -1      )

 cart.    s(19) = (  0.0000000  1.0000000 -0.0000000 )
                  (  0.0000000  0.0000000 -1.0000000 )
                  ( -1.0000000  0.0000000  0.0000000 )


      isym = 20     120 deg rotation - cart. axis [1,-1,1]       

 cryst.   s(20) = (    -1          0          1      )
                  (    -1          1          0      )
                  (    -1          0          0      )

 cart.    s(20) = ( -0.0000000 -1.0000000 -0.0000000 )
                  ( -0.0000000 -0.0000000 -1.0000000 )
                  (  1.0000000 -0.0000000  0.0000000 )


      isym = 21     120 deg rotation - cart. axis [1,1,1]        

 cryst.   s(21) = (     0          0          1      )
                  (     1          0          0      )
                  (     0          1          0      )

 cart.    s(21) = (  0.0000000 -0.0000000  1.0000000 )
                  (  1.0000000 -0.0000000  0.0000000 )
                  ( -0.0000000  1.0000000  0.0000000 )


      isym = 22     120 deg rotation - cart. axis [-1,1,-1]      

 cryst.   s(22) = (     0          0         -1      )
                  (     0          1         -1      )
                  (     1          0         -1      )

 cart.    s(22) = ( -0.0000000  0.0000000  1.0000000 )
                  ( -1.0000000  0.0000000  0.0000000 )
                  (  0.0000000 -1.0000000  0.0000000 )


      isym = 23     120 deg rotation - cart. axis [1,-1,-1]      

 cryst.   s(23) = (    -1          1          0      )
                  (    -1          0          0      )
                  (    -1          0          1      )

 cart.    s(23) = ( -0.0000000 -0.0000000 -1.0000000 )
                  ( -1.0000000 -0.0000000 -0.0000000 )
                  (  0.0000000  1.0000000 -0.0000000 )


      isym = 24     120 deg rotation - cart. axis [-1,-1,1]      

 cryst.   s(24) = (     1         -1          0      )
                  (     0         -1          1      )
                  (     0         -1          0      )

 cart.    s(24) = (  0.0000000  0.0000000 -1.0000000 )
                  (  1.0000000  0.0000000 -0.0000000 )
                  ( -0.0000000 -1.0000000 -0.0000000 )


      isym = 25     inversion                                    

 cryst.   s(25) = (    -1          0          0      )
                  (     0         -1          0      )
                  (     0          0         -1      )

 cart.    s(25) = ( -1.0000000 -0.0000000  0.0000000 )
                  ( -0.0000000 -1.0000000  0.0000000 )
                  ( -0.0000000  0.0000000 -1.0000000 )


      isym = 26     inv. 180 deg rotation - cart. axis [0,0,1]   

 cryst.   s(26) = (     1          0          0      )
                  (     1          0         -1      )
                  (     1         -1          0      )

 cart.    s(26) = (  1.0000000  0.0000000  0.0000000 )
                  (  0.0000000  1.0000000  0.0000000 )
                  (  0.0000000 -0.0000000 -1.0000000 )


      isym = 27     inv. 180 deg rotation - cart. axis [0,1,0]   

 cryst.   s(27) = (     0          1         -1      )
                  (     0          1          0      )
                  (    -1          1          0      )

 cart.    s(27) = (  1.0000000 -0.0000000 -0.0000000 )
                  (  0.0000000 -1.0000000 -0.0000000 )
                  (  0.0000000  0.0000000  1.0000000 )


      isym = 28     inv. 180 deg rotation - cart. axis [1,0,0]   

 cryst.   s(28) = (     0         -1          1      )
                  (    -1          0          1      )
                  (     0          0          1      )

 cart.    s(28) = ( -1.0000000  0.0000000 -0.0000000 )
                  ( -0.0000000  1.0000000 -0.0000000 )
                  ( -0.0000000 -0.0000000  1.0000000 )


      isym = 29     inv. 180 deg rotation - cart. axis [1,1,0]   

 cryst.   s(29) = (    -1          0          0      )
                  (    -1          1          0      )
                  (    -1          0          1      )

 cart.    s(29) = ( -0.0000000 -1.0000000 -0.0000000 )
                  ( -1.0000000 -0.0000000 -0.0000000 )
                  (  0.0000000 -0.0000000  1.0000000 )


      isym = 30     inv. 180 deg rotation - cart. axis [1,-1,0]  

 cryst.   s(30) = (     1          0          0      )
                  (     0          0          1      )
                  (     0          1          0      )

 cart.    s(30) = (  0.0000000  1.0000000 -0.0000000 )
                  (  1.0000000  0.0000000 -0.0000000 )
                  ( -0.0000000  0.0000000  1.0000000 )


      isym = 31     inv.  90 deg rotation - cart. axis [0,0,-1]  

 cryst.   s(31) = (     0         -1          1      )
                  (     1         -1          0      )
                  (     0         -1          0      )

 cart.    s(31) = (  0.0000000 -1.0000000  0.0000000 )
                  (  1.0000000 -0.0000000  0.0000000 )
                  ( -0.0000000 -0.0000000 -1.0000000 )


      isym = 32     inv.  90 deg rotation - cart. axis [0,0,1]   

 cryst.   s(32) = (     0          1         -1      )
                  (     0          0         -1      )
                  (     1          0         -1      )

 cart.    s(32) = ( -0.0000000  1.0000000  0.0000000 )
                  ( -1.0000000  0.0000000  0.0000000 )
                  (  0.0000000  0.0000000 -1.0000000 )


      isym = 33     inv. 180 deg rotation - cart. axis [1,0,1]   

 cryst.   s(33) = (     1         -1          0      )
                  (     0         -1          0      )
                  (     0         -1          1      )

 cart.    s(33) = (  0.0000000  0.0000000 -1.0000000 )
                  (  0.0000000  1.0000000 -0.0000000 )
                  ( -1.0000000 -0.0000000 -0.0000000 )


      isym = 34     inv. 180 deg rotation - cart. axis [-1,0,1]  

 cryst.   s(34) = (     0          0          1      )
                  (     0          1          0      )
                  (     1          0          0      )

 cart.    s(34) = ( -0.0000000  0.0000000  1.0000000 )
                  ( -0.0000000  1.0000000  0.0000000 )
                  (  1.0000000 -0.0000000  0.0000000 )


      isym = 35     inv.  90 deg rotation - cart. axis [0,1,0]   

 cryst.   s(35) = (    -1          1          0      )
                  (    -1          0          1      )
                  (    -1          0          0      )

 cart.    s(35) = ( -0.0000000 -0.0000000 -1.0000000 )
                  ( -0.0000000 -1.0000000 -0.0000000 )
                  (  1.0000000  0.0000000 -0.0000000 )


      isym = 36     inv.  90 deg rotation - cart. axis [0,-1,0]  

 cryst.   s(36) = (     0          0         -1      )
                  (     1          0         -1      )
                  (     0          1         -1      )

 cart.    s(36) = (  0.0000000 -0.0000000  1.0000000 )
                  (  0.0000000 -1.0000000  0.0000000 )
                  ( -1.0000000  0.0000000  0.0000000 )


      isym = 37     inv. 180 deg rotation - cart. axis [0,1,1]   

 cryst.   s(37) = (     1          0         -1      )
                  (     0          1         -1      )
                  (     0          0         -1      )

 cart.    s(37) = (  1.0000000  0.0000000 -0.0000000 )
                  (  0.0000000  0.0000000 -1.0000000 )
                  (  0.0000000 -1.0000000  0.0000000 )


      isym = 38     inv. 180 deg rotation - cart. axis [0,1,-1]  

 cryst.   s(38) = (     0          1          0      )
                  (     1          0          0      )
                  (     0          0          1      )

 cart.    s(38) = (  1.0000000 -0.0000000  0.0000000 )
                  (  0.0000000 -0.0000000  1.0000000 )
                  (  0.0000000  1.0000000 -0.0000000 )


      isym = 39     inv.  90 deg rotation - cart. axis [-1,0,0]  

 cryst.   s(39) = (    -1          0          1      )
                  (    -1          0          0      )
                  (    -1          1          0      )

 cart.    s(39) = ( -1.0000000 -0.0000000 -0.0000000 )
                  ( -0.0000000 -0.0000000 -1.0000000 )
                  ( -0.0000000  1.0000000  0.0000000 )


      isym = 40     inv.  90 deg rotation - cart. axis [1,0,0]   

 cryst.   s(40) = (     0         -1          0      )
                  (     0         -1          1      )
                  (     1         -1          0      )

 cart.    s(40) = ( -1.0000000  0.0000000  0.0000000 )
                  ( -0.0000000  0.0000000  1.0000000 )
                  ( -0.0000000 -1.0000000 -0.0000000 )


      isym = 41     inv. 120 deg rotation - cart. axis [-1,-1,-1]

 cryst.   s(41) = (     0         -1          0      )
                  (     0          0         -1      )
                  (    -1          0          0      )

 cart.    s(41) = (  0.0000000 -1.0000000 -0.0000000 )
                  (  0.0000000 -0.0000000 -1.0000000 )
                  ( -1.0000000 -0.0000000  0.0000000 )


      isym = 42     inv. 120 deg rotation - cart. axis [-1,1,1]  

 cryst.   s(42) = (     0          1          0      )
                  (    -1          1          0      )
                  (     0          1         -1      )

 cart.    s(42) = ( -0.0000000  1.0000000 -0.0000000 )
                  ( -0.0000000  0.0000000 -1.0000000 )
                  (  1.0000000  0.0000000  0.0000000 )


      isym = 43     inv. 120 deg rotation - cart. axis [1,1,-1]  

 cryst.   s(43) = (    -1          0          1      )
                  (     0          0          1      )
                  (     0         -1          1      )

 cart.    s(43) = ( -0.0000000 -1.0000000  0.0000000 )
                  ( -0.0000000 -0.0000000  1.0000000 )
                  (  1.0000000 -0.0000000 -0.0000000 )


      isym = 44     inv. 120 deg rotation - cart. axis [1,-1,1]  

 cryst.   s(44) = (     1          0         -1      )
                  (     1         -1          0      )
                  (     1          0          0      )

 cart.    s(44) = (  0.0000000  1.0000000  0.0000000 )
                  (  0.0000000  0.0000000  1.0000000 )
                  ( -1.0000000  0.0000000 -0.0000000 )


      isym = 45     inv. 120 deg rotation - cart. axis [1,1,1]   

 cryst.   s(45) = (     0          0         -1      )
                  (    -1          0          0      )
                  (     0         -1          0      )

 cart.    s(45) = ( -0.0000000  0.0000000 -1.0000000 )
                  ( -1.0000000  0.0000000 -0.0000000 )
                  (  0.0000000 -1.0000000 -0.0000000 )


      isym = 46     inv. 120 deg rotation - cart. axis [-1,1,-1] 

 cryst.   s(46) = (     0          0          1      )
                  (     0         -1          1      )
                  (    -1          0          1      )

 cart.    s(46) = (  0.0000000 -0.0000000 -1.0000000 )
                  (  1.0000000 -0.0000000 -0.0000000 )
                  ( -0.0000000  1.0000000 -0.0000000 )


      isym = 47     inv. 120 deg rotation - cart. axis [1,-1,-1] 

 cryst.   s(47) = (     1         -1          0      )
                  (     1          0          0      )
                  (     1          0         -1      )

 cart.    s(47) = (  0.0000000  0.0000000  1.0000000 )
                  (  1.0000000  0.0000000  0.0000000 )
                  ( -0.0000000 -1.0000000  0.0000000 )


      isym = 48     inv. 120 deg rotation - cart. axis [-1,-1,1] 

 cryst.   s(48) = (    -1          1          0      )
                  (     0          1         -1      )
                  (     0          1          0      )

 cart.    s(48) = ( -0.0000000 -0.0000000  1.0000000 )
                  ( -1.0000000 -0.0000000  0.0000000 )
                  (  0.0000000  1.0000000  0.0000000 )


   Cartesian axes

     site n.     atom                  positions (alat units)
         1        Pb     tau(   1) = (  -0.0000000   0.0000000   0.0000000  )

   Crystallographic axes

     site n.     atom                  positions (cryst. coord.)
         1        Pb     tau(   1) = (  0.0000000  0.0000000 -0.0000000  )

     number of k points=   120  Marzari-Vanderbilt smearing, width (Ry)=  0.0200
                       cart. coord. in units 2pi/alat
        k(    1) = (   0.0000000   0.0000000   0.0000000), wk =   0.0005926
        k(    2) = (   0.0471405  -0.0471405  -0.0471405), wk =   0.0047407
        k(    3) = (   0.0942809  -0.0942809  -0.0942809), wk =   0.0047407
        k(    4) = (   0.1414214  -0.1414214  -0.1414214), wk =   0.0047407
        k(    5) = (   0.1885618  -0.1885618  -0.1885618), wk =   0.0047407
        k(    6) = (   0.2357023  -0.2357023  -0.2357023), wk =   0.0047407
        k(    7) = (   0.2828427  -0.2828427  -0.2828427), wk =   0.0047407
        k(    8) = (   0.3299832  -0.3299832  -0.3299832), wk =   0.0047407
        k(    9) = (   0.0000000  -0.0000000  -0.0942809), wk =   0.0035556
        k(   10) = (   0.0471405  -0.0471405  -0.1414214), wk =   0.0142222
        k(   11) = (   0.0942809  -0.0942809  -0.1885618), wk =   0.0142222
        k(   12) = (   0.1414214  -0.1414214  -0.2357023), wk =   0.0142222
        k(   13) = (   0.1885618  -0.1885618  -0.2828427), wk =   0.0142222
        k(   14) = (   0.2357023  -0.2357023  -0.3299832), wk =   0.0142222
        k(   15) = (   0.2828427  -0.2828427  -0.3771236), wk =   0.0142222
        k(   16) = (  -0.3771236   0.3771236   0.2828427), wk =   0.0142222
        k(   17) = (  -0.3299832   0.3299832   0.2357023), wk =   0.0142222
        k(   18) = (  -0.2828427   0.2828427   0.1885618), wk =   0.0142222
        k(   19) = (  -0.2357023   0.2357023   0.1414214), wk =   0.0142222
        k(   20) = (  -0.1885618   0.1885618   0.0942809), wk =   0.0142222
        k(   21) = (  -0.1414214   0.1414214   0.0471405), wk =   0.0142222
        k(   22) = (  -0.0942809   0.0942809  -0.0000000), wk =   0.0071111
        k(   23) = (   0.0000000  -0.0000000  -0.1885618), wk =   0.0035556
        k(   24) = (   0.0471405  -0.0471405  -0.2357023), wk =   0.0142222
        k(   25) = (   0.0942809  -0.0942809  -0.2828427), wk =   0.0142222
        k(   26) = (   0.1414214  -0.1414214  -0.3299832), wk =   0.0142222
        k(   27) = (   0.1885618  -0.1885618  -0.3771236), wk =   0.0142222
        k(   28) = (   0.2357023  -0.2357023  -0.4242641), wk =   0.0142222
        k(   29) = (  -0.4242641   0.4242641   0.2357023), wk =   0.0142222
        k(   30) = (  -0.3771236   0.3771236   0.1885618), wk =   0.0142222
        k(   31) = (  -0.3299832   0.3299832   0.1414214), wk =   0.0142222
        k(   32) = (  -0.2828427   0.2828427   0.0942809), wk =   0.0142222
        k(   33) = (  -0.2357023   0.2357023   0.0471405), wk =   0.0142222
        k(   34) = (  -0.1885618   0.1885618  -0.0000000), wk =   0.0071111
        k(   35) = (  -0.0000000   0.0000000  -0.2828427), wk =   0.0035556
        k(   36) = (   0.0471405  -0.0471405  -0.3299832), wk =   0.0142222
        k(   37) = (   0.0942809  -0.0942809  -0.3771236), wk =   0.0142222
        k(   38) = (   0.1414214  -0.1414214  -0.4242641), wk =   0.0142222
        k(   39) = (   0.1885618  -0.1885618  -0.4714045), wk =   0.0142222
        k(   40) = (  -0.4714045   0.4714045   0.1885618), wk =   0.0142222
        k(   41) = (  -0.4242641   0.4242641   0.1414214), wk =   0.0142222
        k(   42) = (  -0.3771236   0.3771236   0.0942809), wk =   0.0142222
        k(   43) = (  -0.3299832   0.3299832   0.0471405), wk =   0.0142222
        k(   44) = (  -0.2828427   0.2828427  -0.0000000), wk =   0.0071111
        k(   45) = (   0.0000000  -0.0000000  -0.3771236), wk =   0.0035556
        k(   46) = (   0.0471405  -0.0471405  -0.4242641), wk =   0.0142222
        k(   47) = (   0.0942809  -0.0942809  -0.4714045), wk =   0.0142222
        k(   48) = (   0.1414214  -0.1414214  -0.5185450), wk =   0.0142222
        k(   49) = (  -0.5185450   0.5185450   0.1414214), wk =   0.0142222
        k(   50) = (  -0.4714045   0.4714045   0.0942809), wk =   0.0142222
        k(   51) = (  -0.4242641   0.4242641   0.0471405), wk =   0.0142222
        k(   52) = (  -0.3771236   0.3771236   0.0000000), wk =   0.0071111
        k(   53) = (   0.0000000  -0.0000000  -0.4714045), wk =   0.0035556
        k(   54) = (   0.0471405  -0.0471405  -0.5185450), wk =   0.0142222
        k(   55) = (   0.0942809  -0.0942809  -0.5656854), wk =   0.0142222
        k(   56) = (  -0.5656854   0.5656854   0.0942809), wk =   0.0142222
        k(   57) = (  -0.5185450   0.5185450   0.0471405), wk =   0.0142222
        k(   58) = (  -0.4714045   0.4714045   0.0000000), wk =   0.0071111
        k(   59) = (  -0.0000000   0.0000000  -0.5656854), wk =   0.0035556
        k(   60) = (   0.0471405  -0.0471405  -0.6128259), wk =   0.0142222
        k(   61) = (  -0.6128259   0.6128259   0.0471405), wk =   0.0142222
        k(   62) = (  -0.5656854   0.5656854  -0.0000000), wk =   0.0071111
        k(   63) = (  -0.0000000   0.0000000  -0.6599663), wk =   0.0035556
        k(   64) = (  -0.6599663   0.6599663  -0.0000000), wk =   0.0071111
        k(   65) = (   0.0000000  -0.0942809  -0.1885618), wk =   0.0142222
        k(   66) = (   0.0471405  -0.1414214  -0.2357023), wk =   0.0284444
        k(   67) = (   0.0942809  -0.1885618  -0.2828427), wk =   0.0284444
        k(   68) = (   0.1414214  -0.2357023  -0.3299832), wk =   0.0284444
        k(   69) = (   0.1885618  -0.2828427  -0.3771236), wk =   0.0284444
        k(   70) = (  -0.4714045   0.3771236   0.2828427), wk =   0.0284444
        k(   71) = (  -0.0000000  -0.0942809  -0.2828427), wk =   0.0142222
        k(   72) = (   0.0471405  -0.1414214  -0.3299832), wk =   0.0284444
        k(   73) = (   0.0942809  -0.1885618  -0.3771236), wk =   0.0284444
        k(   74) = (   0.1414214  -0.2357023  -0.4242641), wk =   0.0284444
        k(   75) = (  -0.5185450   0.4242641   0.2357023), wk =   0.0284444
        k(   76) = (  -0.4714045   0.3771236   0.1885618), wk =   0.0284444
        k(   77) = (  -0.4242641   0.3299832   0.1414214), wk =   0.0284444
        k(   78) = (  -0.3771236   0.2828427   0.0942809), wk =   0.0284444
        k(   79) = (  -0.3299832   0.2357023   0.0471405), wk =   0.0284444
        k(   80) = (  -0.2828427   0.1885618  -0.0000000), wk =   0.0142222
        k(   81) = (   0.0000000  -0.0942809  -0.3771236), wk =   0.0142222
        k(   82) = (   0.0471405  -0.1414214  -0.4242641), wk =   0.0284444
        k(   83) = (   0.0942809  -0.1885618  -0.4714045), wk =   0.0284444
        k(   84) = (  -0.5656854   0.4714045   0.1885618), wk =   0.0284444
        k(   85) = (  -0.5185450   0.4242641   0.1414214), wk =   0.0284444
        k(   86) = (  -0.4714045   0.3771236   0.0942809), wk =   0.0284444
        k(   87) = (  -0.4242641   0.3299832   0.0471405), wk =   0.0284444
        k(   88) = (  -0.3771236   0.2828427  -0.0000000), wk =   0.0142222
        k(   89) = (   0.0000000  -0.0942809  -0.4714045), wk =   0.0142222
        k(   90) = (   0.0471405  -0.1414214  -0.5185450), wk =   0.0284444
        k(   91) = (  -0.6128259   0.5185450   0.1414214), wk =   0.0284444
        k(   92) = (  -0.5656854   0.4714045   0.0942809), wk =   0.0284444
        k(   93) = (  -0.5185450   0.4242641   0.0471405), wk =   0.0284444
        k(   94) = (  -0.4714045   0.3771236   0.0000000), wk =   0.0142222
        k(   95) = (  -0.0000000  -0.0942809  -0.5656854), wk =   0.0142222
        k(   96) = (  -0.6599663   0.5656854   0.0942809), wk =   0.0284444
        k(   97) = (  -0.6128259   0.5185450   0.0471405), wk =   0.0284444
        k(   98) = (  -0.5656854   0.4714045   0.0000000), wk =   0.0142222
        k(   99) = (  -0.7071068   0.6128259   0.0471405), wk =   0.0142222
        k(  100) = (  -0.6599663   0.5656854  -0.0000000), wk =   0.0142222
        k(  101) = (   0.0000000  -0.1885618  -0.3771236), wk =   0.0142222
        k(  102) = (   0.0471405  -0.2357023  -0.4242641), wk =   0.0284444
        k(  103) = (  -0.6128259   0.4242641   0.2357023), wk =   0.0284444
        k(  104) = (  -0.5656854   0.3771236   0.1885618), wk =   0.0284444
        k(  105) = (   0.0000000  -0.1885618  -0.4714045), wk =   0.0142222
        k(  106) = (  -0.6599663   0.4714045   0.1885618), wk =   0.0284444
        k(  107) = (  -0.6128259   0.4242641   0.1414214), wk =   0.0284444
        k(  108) = (  -0.5656854   0.3771236   0.0942809), wk =   0.0284444
        k(  109) = (  -0.5185450   0.3299832   0.0471405), wk =   0.0284444
        k(  110) = (  -0.4714045   0.2828427  -0.0000000), wk =   0.0142222
        k(  111) = (  -0.7071068   0.5185450   0.1414214), wk =   0.0142222
        k(  112) = (  -0.6599663   0.4714045   0.0942809), wk =   0.0284444
        k(  113) = (  -0.6128259   0.4242641   0.0471405), wk =   0.0284444
        k(  114) = (  -0.5656854   0.3771236   0.0000000), wk =   0.0142222
        k(  115) = (  -0.7071068   0.5185450   0.0471405), wk =   0.0142222
        k(  116) = (  -0.6599663   0.4714045   0.0000000), wk =   0.0142222
        k(  117) = (  -0.7071068   0.4242641   0.1414214), wk =   0.0142222
        k(  118) = (  -0.6599663   0.3771236   0.0942809), wk =   0.0284444
        k(  119) = (  -0.7071068   0.4242641   0.0471405), wk =   0.0142222
        k(  120) = (  -0.6599663   0.3771236   0.0000000), wk =   0.0142222

                       cryst. coord.
        k(    1) = (   0.0000000   0.0000000  -0.0000000), wk =   0.0005926
        k(    2) = (   0.0000000   0.0000000   0.0666667), wk =   0.0047407
        k(    3) = (   0.0000000   0.0000000   0.1333333), wk =   0.0047407
        k(    4) = (   0.0000000   0.0000000   0.2000000), wk =   0.0047407
        k(    5) = (   0.0000000   0.0000000   0.2666667), wk =   0.0047407
        k(    6) = (  -0.0000000  -0.0000000   0.3333333), wk =   0.0047407
        k(    7) = (   0.0000000   0.0000000   0.4000000), wk =   0.0047407
        k(    8) = (  -0.0000000  -0.0000000   0.4666667), wk =   0.0047407
        k(    9) = (   0.0000000   0.0666667   0.0666667), wk =   0.0035556
        k(   10) = (   0.0000000   0.0666667   0.1333333), wk =   0.0142222
        k(   11) = (   0.0000000   0.0666667   0.2000000), wk =   0.0142222
        k(   12) = (   0.0000000   0.0666667   0.2666667), wk =   0.0142222
        k(   13) = (   0.0000000   0.0666667   0.3333333), wk =   0.0142222
        k(   14) = (   0.0000000   0.0666667   0.4000000), wk =   0.0142222
        k(   15) = (   0.0000000   0.0666667   0.4666667), wk =   0.0142222
        k(   16) = (  -0.0000000   0.0666667  -0.4666667), wk =   0.0142222
        k(   17) = (   0.0000000   0.0666667  -0.4000000), wk =   0.0142222
        k(   18) = (  -0.0000000   0.0666667  -0.3333333), wk =   0.0142222
        k(   19) = (  -0.0000000   0.0666667  -0.2666667), wk =   0.0142222
        k(   20) = (   0.0000000   0.0666667  -0.2000000), wk =   0.0142222
        k(   21) = (  -0.0000000   0.0666667  -0.1333333), wk =   0.0142222
        k(   22) = (  -0.0000000   0.0666667  -0.0666667), wk =   0.0071111
        k(   23) = (   0.0000000   0.1333333   0.1333333), wk =   0.0035556
        k(   24) = (   0.0000000   0.1333333   0.2000000), wk =   0.0142222
        k(   25) = (   0.0000000   0.1333333   0.2666667), wk =   0.0142222
        k(   26) = (   0.0000000   0.1333333   0.3333333), wk =   0.0142222
        k(   27) = (   0.0000000   0.1333333   0.4000000), wk =   0.0142222
        k(   28) = (   0.0000000   0.1333333   0.4666667), wk =   0.0142222
        k(   29) = (  -0.0000000   0.1333333  -0.4666667), wk =   0.0142222
        k(   30) = (  -0.0000000   0.1333333  -0.4000000), wk =   0.0142222
        k(   31) = (   0.0000000   0.1333333  -0.3333333), wk =   0.0142222
        k(   32) = (  -0.0000000   0.1333333  -0.2666667), wk =   0.0142222
        k(   33) = (   0.0000000   0.1333333  -0.2000000), wk =   0.0142222
        k(   34) = (  -0.0000000   0.1333333  -0.1333333), wk =   0.0071111
        k(   35) = (   0.0000000   0.2000000   0.2000000), wk =   0.0035556
        k(   36) = (  -0.0000000   0.2000000   0.2666667), wk =   0.0142222
        k(   37) = (  -0.0000000   0.2000000   0.3333333), wk =   0.0142222
        k(   38) = (   0.0000000   0.2000000   0.4000000), wk =   0.0142222
        k(   39) = (   0.0000000   0.2000000   0.4666667), wk =   0.0142222
        k(   40) = (  -0.0000000   0.2000000  -0.4666667), wk =   0.0142222
        k(   41) = (  -0.0000000   0.2000000  -0.4000000), wk =   0.0142222
        k(   42) = (  -0.0000000   0.2000000  -0.3333333), wk =   0.0142222
        k(   43) = (   0.0000000   0.2000000  -0.2666667), wk =   0.0142222
        k(   44) = (  -0.0000000   0.2000000  -0.2000000), wk =   0.0071111
        k(   45) = (   0.0000000   0.2666667   0.2666667), wk =   0.0035556
        k(   46) = (   0.0000000   0.2666667   0.3333333), wk =   0.0142222
        k(   47) = (   0.0000000   0.2666667   0.4000000), wk =   0.0142222
        k(   48) = (   0.0000000   0.2666667   0.4666667), wk =   0.0142222
        k(   49) = (   0.0000000   0.2666667  -0.4666667), wk =   0.0142222
        k(   50) = (  -0.0000000   0.2666667  -0.4000000), wk =   0.0142222
        k(   51) = (  -0.0000000   0.2666667  -0.3333333), wk =   0.0142222
        k(   52) = (  -0.0000000   0.2666667  -0.2666667), wk =   0.0071111
        k(   53) = (   0.0000000   0.3333333   0.3333333), wk =   0.0035556
        k(   54) = (  -0.0000000   0.3333333   0.4000000), wk =   0.0142222
        k(   55) = (  -0.0000000   0.3333333   0.4666667), wk =   0.0142222
        k(   56) = (  -0.0000000   0.3333333  -0.4666667), wk =   0.0142222
        k(   57) = (   0.0000000   0.3333333  -0.4000000), wk =   0.0142222
        k(   58) = (  -0.0000000   0.3333333  -0.3333333), wk =   0.0071111
        k(   59) = (   0.0000000   0.4000000   0.4000000), wk =   0.0035556
        k(   60) = (  -0.0000000   0.4000000   0.4666667), wk =   0.0142222
        k(   61) = (   0.0000000   0.4000000  -0.4666667), wk =   0.0142222
        k(   62) = (  -0.0000000   0.4000000  -0.4000000), wk =   0.0071111
        k(   63) = (  -0.0000000   0.4666667   0.4666667), wk =   0.0035556
        k(   64) = (   0.0000000   0.4666667  -0.4666667), wk =   0.0071111
        k(   65) = (   0.0666667   0.1333333   0.2000000), wk =   0.0142222
        k(   66) = (   0.0666667   0.1333333   0.2666667), wk =   0.0284444
        k(   67) = (   0.0666667   0.1333333   0.3333333), wk =   0.0284444
        k(   68) = (   0.0666667   0.1333333   0.4000000), wk =   0.0284444
        k(   69) = (   0.0666667   0.1333333   0.4666667), wk =   0.0284444
        k(   70) = (   0.0666667   0.1333333  -0.4666667), wk =   0.0284444
        k(   71) = (   0.0666667   0.2000000   0.2666667), wk =   0.0142222
        k(   72) = (   0.0666667   0.2000000   0.3333333), wk =   0.0284444
        k(   73) = (   0.0666667   0.2000000   0.4000000), wk =   0.0284444
        k(   74) = (   0.0666667   0.2000000   0.4666667), wk =   0.0284444
        k(   75) = (   0.0666667   0.2000000  -0.4666667), wk =   0.0284444
        k(   76) = (   0.0666667   0.2000000  -0.4000000), wk =   0.0284444
        k(   77) = (   0.0666667   0.2000000  -0.3333333), wk =   0.0284444
        k(   78) = (   0.0666667   0.2000000  -0.2666667), wk =   0.0284444
        k(   79) = (   0.0666667   0.2000000  -0.2000000), wk =   0.0284444
        k(   80) = (   0.0666667   0.2000000  -0.1333333), wk =   0.0142222
        k(   81) = (   0.0666667   0.2666667   0.3333333), wk =   0.0142222
        k(   82) = (   0.0666667   0.2666667   0.4000000), wk =   0.0284444
        k(   83) = (   0.0666667   0.2666667   0.4666667), wk =   0.0284444
        k(   84) = (   0.0666667   0.2666667  -0.4666667), wk =   0.0284444
        k(   85) = (   0.0666667   0.2666667  -0.4000000), wk =   0.0284444
        k(   86) = (   0.0666667   0.2666667  -0.3333333), wk =   0.0284444
        k(   87) = (   0.0666667   0.2666667  -0.2666667), wk =   0.0284444
        k(   88) = (   0.0666667   0.2666667  -0.2000000), wk =   0.0142222
        k(   89) = (   0.0666667   0.3333333   0.4000000), wk =   0.0142222
        k(   90) = (   0.0666667   0.3333333   0.4666667), wk =   0.0284444
        k(   91) = (   0.0666667   0.3333333  -0.4666667), wk =   0.0284444
        k(   92) = (   0.0666667   0.3333333  -0.4000000), wk =   0.0284444
        k(   93) = (   0.0666667   0.3333333  -0.3333333), wk =   0.0284444
        k(   94) = (   0.0666667   0.3333333  -0.2666667), wk =   0.0142222
        k(   95) = (   0.0666667   0.4000000   0.4666667), wk =   0.0142222
        k(   96) = (   0.0666667   0.4000000  -0.4666667), wk =   0.0284444
        k(   97) = (   0.0666667   0.4000000  -0.4000000), wk =   0.0284444
        k(   98) = (   0.0666667   0.4000000  -0.3333333), wk =   0.0142222
        k(   99) = (   0.0666667   0.4666667  -0.4666667), wk =   0.0142222
        k(  100) = (   0.0666667   0.4666667  -0.4000000), wk =   0.0142222
        k(  101) = (   0.1333333   0.2666667   0.4000000), wk =   0.0142222
        k(  102) = (   0.1333333   0.2666667   0.4666667), wk =   0.0284444
        k(  103) = (   0.1333333   0.2666667  -0.4666667), wk =   0.0284444
        k(  104) = (   0.1333333   0.2666667  -0.4000000), wk =   0.0284444
        k(  105) = (   0.1333333   0.3333333   0.4666667), wk =   0.0142222
        k(  106) = (   0.1333333   0.3333333  -0.4666667), wk =   0.0284444
        k(  107) = (   0.1333333   0.3333333  -0.4000000), wk =   0.0284444
        k(  108) = (   0.1333333   0.3333333  -0.3333333), wk =   0.0284444
        k(  109) = (   0.1333333   0.3333333  -0.2666667), wk =   0.0284444
        k(  110) = (   0.1333333   0.3333333  -0.2000000), wk =   0.0142222
        k(  111) = (   0.1333333   0.4000000  -0.4666667), wk =   0.0142222
        k(  112) = (   0.1333333   0.4000000  -0.4000000), wk =   0.0284444
        k(  113) = (   0.1333333   0.4000000  -0.3333333), wk =   0.0284444
        k(  114) = (   0.1333333   0.4000000  -0.2666667), wk =   0.0142222
        k(  115) = (   0.1333333   0.4666667  -0.4000000), wk =   0.0142222
        k(  116) = (   0.1333333   0.4666667  -0.3333333), wk =   0.0142222
        k(  117) = (   0.2000000   0.4000000  -0.4000000), wk =   0.0142222
        k(  118) = (   0.2000000   0.4000000  -0.3333333), wk =   0.0284444
        k(  119) = (   0.2000000   0.4666667  -0.3333333), wk =   0.0142222
        k(  120) = (   0.2000000   0.4666667  -0.2666667), wk =   0.0142222

     Dense  grid:    20539 G-vectors     FFT dimensions: (  40,  40,  40)

     Smooth grid:     7391 G-vectors     FFT dimensions: (  27,  27,  27)

     Dynamical RAM for                 wfc:       0.08 MB

     Dynamical RAM for     wfc (w. buffer):       9.24 MB

     Dynamical RAM for           str. fact:       0.16 MB

     Dynamical RAM for           local pot:       0.00 MB

     Dynamical RAM for          nlocal pot:       0.12 MB

     Dynamical RAM for                qrad:       2.87 MB

     Dynamical RAM for          rho,v,vnew:       1.20 MB

     Dynamical RAM for               rhoin:       0.40 MB

     Dynamical RAM for            rho*nmix:       2.51 MB

     Dynamical RAM for           G-vectors:       0.62 MB

     Dynamical RAM for          h,s,v(r/c):       0.02 MB

     Dynamical RAM for          <psi|beta>:       0.00 MB

     Dynamical RAM for                 psi:       0.15 MB

     Dynamical RAM for                hpsi:       0.15 MB

     Dynamical RAM for                spsi:       0.15 MB

     Dynamical RAM for      wfcinit/wfcrot:       0.16 MB

     Dynamical RAM for           addusdens:      29.30 MB

     Dynamical RAM for          addusforce:      29.39 MB

     Dynamical RAM for         addusstress:      31.50 MB

     Estimated static dynamical RAM per process >      16.15 MB

     Estimated max dynamical RAM per process >      50.15 MB

     Estimated total dynamical RAM >     100.31 MB

     Initial potential from superposition of free atoms

     starting charge      13.9976, renormalised to      14.0000
     Starting wfcs are    9 randomized atomic wfcs +    2 random wfcs
     Checking if some PAW data can be deallocated... 

     total cpu time spent up to now is        5.5 secs

     Self-consistent Calculation
[tb_dev] Currently allocated     5.39E-01 Mbytes, locked:    0 /   5
[tb_pin] Currently allocated     0.00E+00 Mbytes, locked:    0 /   0

     iteration #  1     ecut=    40.00 Ry     beta= 0.40
     Davidson diagonalization with overlap

---- Real-time Memory Report at c_bands before calling an iterative solver
           614 MiB given to the printing process from OS
             0 MiB allocation reported by mallinfo(arena+hblkhd)
         26856 MiB available memory on the node where the printing process lives
     GPU memory used/free/total (MiB): 1323 / 10605 / 11928
------------------
     ethr =  1.00E-02,  avg # of iterations =  5.3

     Threshold (ethr) on eigenvalues was too large:
     Diagonalizing with lowered threshold

     Davidson diagonalization with overlap

---- Real-time Memory Report at c_bands before calling an iterative solver
           627 MiB given to the printing process from OS
             0 MiB allocation reported by mallinfo(arena+hblkhd)
         26866 MiB available memory on the node where the printing process lives
     GPU memory used/free/total (MiB): 1325 / 10603 / 11928
------------------
     c_bands:  1 eigenvalues not converged
     ethr =  1.84E-05,  avg # of iterations = 10.0

     total cpu time spent up to now is       64.8 secs

     total energy              =    -870.55459538 Ry
     estimated scf accuracy    <       0.00376597 Ry
[tb_dev] Currently allocated     7.63E-06 Mbytes, locked:    0 /   2
[tb_pin] Currently allocated     0.00E+00 Mbytes, locked:    0 /   0

     iteration #  2     ecut=    40.00 Ry     beta= 0.40
     Davidson diagonalization with overlap

---- Real-time Memory Report at c_bands before calling an iterative solver
           636 MiB given to the printing process from OS
             0 MiB allocation reported by mallinfo(arena+hblkhd)
         26816 MiB available memory on the node where the printing process lives
     GPU memory used/free/total (MiB): 1333 / 10595 / 11928
------------------
     ethr =  2.69E-05,  avg # of iterations =  1.6

     total cpu time spent up to now is       75.4 secs

     total energy              =    -870.55477198 Ry
     estimated scf accuracy    <       0.00044699 Ry
[tb_dev] Currently allocated     7.63E-06 Mbytes, locked:    0 /   2
[tb_pin] Currently allocated     0.00E+00 Mbytes, locked:    0 /   0

     iteration #  3     ecut=    40.00 Ry     beta= 0.40
     Davidson diagonalization with overlap

---- Real-time Memory Report at c_bands before calling an iterative solver
           637 MiB given to the printing process from OS
             0 MiB allocation reported by mallinfo(arena+hblkhd)
         26820 MiB available memory on the node where the printing process lives
     GPU memory used/free/total (MiB): 1333 / 10595 / 11928
------------------
     c_bands:  1 eigenvalues not converged
     ethr =  3.19E-06,  avg # of iterations =  5.7

     total cpu time spent up to now is       88.1 secs

     total energy              =    -870.55534498 Ry
     estimated scf accuracy    <       0.00069155 Ry
[tb_dev] Currently allocated     7.63E-06 Mbytes, locked:    0 /   2
[tb_pin] Currently allocated     0.00E+00 Mbytes, locked:    0 /   0

     iteration #  4     ecut=    40.00 Ry     beta= 0.40
     Davidson diagonalization with overlap

---- Real-time Memory Report at c_bands before calling an iterative solver
           640 MiB given to the printing process from OS
             0 MiB allocation reported by mallinfo(arena+hblkhd)
         27709 MiB available memory on the node where the printing process lives
     GPU memory used/free/total (MiB): 695 / 11233 / 11928
------------------
     ethr =  3.19E-06,  avg # of iterations =  1.1

     total cpu time spent up to now is       92.5 secs

     total energy              =    -870.55528442 Ry
     estimated scf accuracy    <       0.00102599 Ry
[tb_dev] Currently allocated     7.63E-06 Mbytes, locked:    0 /   2
[tb_pin] Currently allocated     0.00E+00 Mbytes, locked:    0 /   0

     iteration #  5     ecut=    40.00 Ry     beta= 0.40
     Davidson diagonalization with overlap

---- Real-time Memory Report at c_bands before calling an iterative solver
           640 MiB given to the printing process from OS
             0 MiB allocation reported by mallinfo(arena+hblkhd)
         27672 MiB available memory on the node where the printing process lives
     GPU memory used/free/total (MiB): 695 / 11233 / 11928
------------------
     ethr =  3.19E-06,  avg # of iterations =  2.0

     total cpu time spent up to now is       98.3 secs

     total energy              =    -870.55531503 Ry
     estimated scf accuracy    <       0.00002026 Ry
[tb_dev] Currently allocated     7.63E-06 Mbytes, locked:    0 /   2
[tb_pin] Currently allocated     0.00E+00 Mbytes, locked:    0 /   0

     iteration #  6     ecut=    40.00 Ry     beta= 0.40
     Davidson diagonalization with overlap

---- Real-time Memory Report at c_bands before calling an iterative solver
           641 MiB given to the printing process from OS
             0 MiB allocation reported by mallinfo(arena+hblkhd)
         27666 MiB available memory on the node where the printing process lives
     GPU memory used/free/total (MiB): 695 / 11233 / 11928
------------------
     ethr =  1.45E-07,  avg # of iterations =  4.1

     total cpu time spent up to now is      107.4 secs

     total energy              =    -870.55532674 Ry
     estimated scf accuracy    <       0.00000357 Ry
[tb_dev] Currently allocated     7.63E-06 Mbytes, locked:    0 /   2
[tb_pin] Currently allocated     0.00E+00 Mbytes, locked:    0 /   0

     iteration #  7     ecut=    40.00 Ry     beta= 0.40
     Davidson diagonalization with overlap

---- Real-time Memory Report at c_bands before calling an iterative solver
           644 MiB given to the printing process from OS
             0 MiB allocation reported by mallinfo(arena+hblkhd)
         27659 MiB available memory on the node where the printing process lives
     GPU memory used/free/total (MiB): 695 / 11233 / 11928
------------------
     ethr =  2.55E-08,  avg # of iterations =  2.8

     total cpu time spent up to now is      114.4 secs

     total energy              =    -870.55532523 Ry
     estimated scf accuracy    <       0.00000682 Ry
[tb_dev] Currently allocated     7.63E-06 Mbytes, locked:    0 /   2
[tb_pin] Currently allocated     0.00E+00 Mbytes, locked:    0 /   0

     iteration #  8     ecut=    40.00 Ry     beta= 0.40
     Davidson diagonalization with overlap

---- Real-time Memory Report at c_bands before calling an iterative solver
           645 MiB given to the printing process from OS
             0 MiB allocation reported by mallinfo(arena+hblkhd)
         27655 MiB available memory on the node where the printing process lives
     GPU memory used/free/total (MiB): 695 / 11233 / 11928
------------------
     ethr =  2.55E-08,  avg # of iterations =  2.7

     total cpu time spent up to now is      121.2 secs

     total energy              =    -870.55532567 Ry
     estimated scf accuracy    <       0.00000020 Ry
[tb_dev] Currently allocated     7.63E-06 Mbytes, locked:    0 /   2
[tb_pin] Currently allocated     0.00E+00 Mbytes, locked:    0 /   0

     iteration #  9     ecut=    40.00 Ry     beta= 0.40
     Davidson diagonalization with overlap

---- Real-time Memory Report at c_bands before calling an iterative solver
           645 MiB given to the printing process from OS
             0 MiB allocation reported by mallinfo(arena+hblkhd)
         27657 MiB available memory on the node where the printing process lives
     GPU memory used/free/total (MiB): 695 / 11233 / 11928
------------------
     ethr =  1.45E-09,  avg # of iterations =  4.8

     total cpu time spent up to now is      131.2 secs

     total energy              =    -870.55532588 Ry
     estimated scf accuracy    <       0.00000018 Ry
[tb_dev] Currently allocated     7.63E-06 Mbytes, locked:    0 /   2
[tb_pin] Currently allocated     0.00E+00 Mbytes, locked:    0 /   0

     iteration # 10     ecut=    40.00 Ry     beta= 0.40
     Davidson diagonalization with overlap

---- Real-time Memory Report at c_bands before calling an iterative solver
           645 MiB given to the printing process from OS
             0 MiB allocation reported by mallinfo(arena+hblkhd)
         27649 MiB available memory on the node where the printing process lives
     GPU memory used/free/total (MiB): 695 / 11233 / 11928
------------------
     ethr =  1.30E-09,  avg # of iterations =  1.2

     total cpu time spent up to now is      135.8 secs

     total energy              =    -870.55532588 Ry
     estimated scf accuracy    <       0.00000002 Ry
[tb_dev] Currently allocated     7.63E-06 Mbytes, locked:    0 /   2
[tb_pin] Currently allocated     0.00E+00 Mbytes, locked:    0 /   0

     iteration # 11     ecut=    40.00 Ry     beta= 0.40
     Davidson diagonalization with overlap

---- Real-time Memory Report at c_bands before calling an iterative solver
           646 MiB given to the printing process from OS
             0 MiB allocation reported by mallinfo(arena+hblkhd)
         27648 MiB available memory on the node where the printing process lives
     GPU memory used/free/total (MiB): 695 / 11233 / 11928
------------------
     ethr =  1.51E-10,  avg # of iterations =  2.5

     total cpu time spent up to now is      142.4 secs

     total energy              =    -870.55532589 Ry
     estimated scf accuracy    <          8.3E-10 Ry
[tb_dev] Currently allocated     7.63E-06 Mbytes, locked:    0 /   2
[tb_pin] Currently allocated     0.00E+00 Mbytes, locked:    0 /   0

     iteration # 12     ecut=    40.00 Ry     beta= 0.40
     Davidson diagonalization with overlap

---- Real-time Memory Report at c_bands before calling an iterative solver
           646 MiB given to the printing process from OS
             0 MiB allocation reported by mallinfo(arena+hblkhd)
         27647 MiB available memory on the node where the printing process lives
     GPU memory used/free/total (MiB): 695 / 11233 / 11928
------------------
     ethr =  5.93E-12,  avg # of iterations =  5.6

     total cpu time spent up to now is      153.8 secs

     total energy              =    -870.55532589 Ry
     estimated scf accuracy    <          1.2E-09 Ry
[tb_dev] Currently allocated     7.63E-06 Mbytes, locked:    0 /   2
[tb_pin] Currently allocated     0.00E+00 Mbytes, locked:    0 /   0

     iteration # 13     ecut=    40.00 Ry     beta= 0.40
     Davidson diagonalization with overlap

---- Real-time Memory Report at c_bands before calling an iterative solver
           646 MiB given to the printing process from OS
             0 MiB allocation reported by mallinfo(arena+hblkhd)
         27659 MiB available memory on the node where the printing process lives
     GPU memory used/free/total (MiB): 695 / 11233 / 11928
------------------
     ethr =  5.93E-12,  avg # of iterations =  1.0

     total cpu time spent up to now is      158.1 secs

     total energy              =    -870.55532589 Ry
     estimated scf accuracy    <          1.3E-09 Ry
[tb_dev] Currently allocated     7.63E-06 Mbytes, locked:    0 /   2
[tb_pin] Currently allocated     0.00E+00 Mbytes, locked:    0 /   0

     iteration # 14     ecut=    40.00 Ry     beta= 0.40
     Davidson diagonalization with overlap

---- Real-time Memory Report at c_bands before calling an iterative solver
           646 MiB given to the printing process from OS
             0 MiB allocation reported by mallinfo(arena+hblkhd)
         27657 MiB available memory on the node where the printing process lives
     GPU memory used/free/total (MiB): 695 / 11233 / 11928
------------------
     ethr =  5.93E-12,  avg # of iterations =  2.0

     total cpu time spent up to now is      163.9 secs

     End of self-consistent calculation

          k = 0.0000 0.0000 0.0000 (   941 PWs)   bands (ev):

    -6.4033  -6.4033  -6.4033  -6.2810  -6.2810  -0.8376  17.7366  17.7366
    17.7366  20.7072  21.4424

     occupation numbers 
     1.0000   1.0000   1.0000   1.0000   1.0000   1.0000   0.0000   0.0000
     0.0000   0.0000   0.0000

          k = 0.0471-0.0471-0.0471 (   917 PWs)   bands (ev):

    -6.4032  -6.3975  -6.3975  -6.2811  -6.2811  -0.7559  16.7132  17.6314
    17.6314  20.4009  21.9753

     occupation numbers 
     1.0000   1.0000   1.0000   1.0000   1.0000   1.0000   0.0000   0.0000
     0.0000   0.0000   0.0000

          k = 0.0943-0.0943-0.0943 (   914 PWs)   bands (ev):

    -6.4034  -6.3838  -6.3838  -6.2795  -6.2795  -0.5107  14.7948  17.3610
    17.3610  20.0014  22.8968

     occupation numbers 
     1.0000   1.0000   1.0000   1.0000   1.0000   1.0000   0.0000   0.0000
     0.0000   0.0000   0.0000

          k = 0.1414-0.1414-0.1414 (   914 PWs)   bands (ev):

    -6.4053  -6.3728  -6.3728  -6.2676  -6.2676  -0.1040  12.7828  17.0139
    17.0139  19.7066  22.8612

     occupation numbers 
     1.0000   1.0000   1.0000   1.0000   1.0000   1.0000   0.0000   0.0000
     0.0000   0.0000   0.0000

          k = 0.1886-0.1886-0.1886 (   905 PWs)   bands (ev):

    -6.4089  -6.3728  -6.3728  -6.2409  -6.2409   0.4560  10.8711  16.6644
    16.6644  19.5347  21.9675

     occupation numbers 
     1.0000   1.0000   1.0000   1.0000   1.0000   1.0000   0.0473   0.0000
     0.0000   0.0000   0.0000

          k = 0.2357-0.2357-0.2357 (   926 PWs)   bands (ev):

    -6.4144  -6.3800  -6.3800  -6.2080  -6.2080   1.1430   9.1442  16.3629
    16.3629  19.4830  21.2127

     occupation numbers 
     1.0000   1.0000   1.0000   1.0000   1.0000   1.0000   1.0000   0.0000
     0.0000   0.0000   0.0000

          k = 0.2828-0.2828-0.2828 (   911 PWs)   bands (ev):

    -6.4194  -6.3879  -6.3879  -6.1794  -6.1794   1.8823   7.7021  16.1433
    16.1433  19.5478  20.6121

     occupation numbers 
     1.0000   1.0000   1.0000   1.0000   1.0000   1.0000   1.0000   0.0000
     0.0000   0.0000   0.0000

          k = 0.3300-0.3300-0.3300 (   899 PWs)   bands (ev):

    -6.4226  -6.3926  -6.3926  -6.1630  -6.1630   2.4558   6.7747  16.0279
    16.0279  19.7025  20.1904

     occupation numbers 
     1.0000   1.0000   1.0000   1.0000   1.0000   1.0000   1.0000   0.0000
     0.0000   0.0000   0.0000

          k = 0.0000-0.0000-0.0943 (   917 PWs)   bands (ev):

    -6.4094  -6.3921  -6.3921  -6.2871  -6.2760  -0.7286  16.9834  17.2708
    17.2708  20.2080  22.2525

     occupation numbers 
     1.0000   1.0000   1.0000   1.0000   1.0000   1.0000   0.0000   0.0000
     0.0000   0.0000   0.0000

          k = 0.0471-0.0471-0.1414 (   914 PWs)   bands (ev):

    -6.4129  -6.3789  -6.3777  -6.2928  -6.2705  -0.5379  15.4174  16.8353
    17.2122  20.0256  22.3636

     occupation numbers 
     1.0000   1.0000   1.0000   1.0000   1.0000   1.0000   0.0000   0.0000
     0.0000   0.0000   0.0000

          k = 0.0943-0.0943-0.1886 (   915 PWs)   bands (ev):

    -6.4134  -6.3673  -6.3639  -6.2911  -6.2580  -0.1849  13.4572  16.4145
    16.9551  20.0479  21.9503

     occupation numbers 
     1.0000   1.0000   1.0000   1.0000   1.0000   1.0000   0.0000   0.0000
     0.0000   0.0000   0.0000

          k = 0.1414-0.1414-0.2357 (   917 PWs)   bands (ev):

    -6.4136  -6.3669  -6.3604  -6.2720  -6.2332   0.3246  11.5286  16.0632
    16.5646  19.8920  21.4937

     occupation numbers 
     1.0000   1.0000   1.0000   1.0000   1.0000   1.0000   0.0000   0.0000
     0.0000   0.0000   0.0000

          k = 0.1886-0.1886-0.2828 (   912 PWs)   bands (ev):

    -6.4148  -6.3754  -6.3659  -6.2401  -6.2023   0.9719   9.7493  15.8149
    16.1427  19.6344  21.1492

     occupation numbers 
     1.0000   1.0000   1.0000   1.0000   1.0000   1.0000   1.0004   0.0000
     0.0000   0.0000   0.0000

          k = 0.2357-0.2357-0.3300 (   914 PWs)   bands (ev):

    -6.4168  -6.3852  -6.3744  -6.2071  -6.1758   1.7038   8.2101  15.6909
    15.7477  19.4504  20.8612

     occupation numbers 
     1.0000   1.0000   1.0000   1.0000   1.0000   1.0000   1.0000   0.0000
     0.0000   0.0000   0.0000

          k = 0.2828-0.2828-0.3771 (   905 PWs)   bands (ev):

    -6.4179  -6.3920  -6.3813  -6.1814  -6.1615   2.3656   7.0826  15.4239
    15.7031  19.4086  20.6038

     occupation numbers 
     1.0000   1.0000   1.0000   1.0000   1.0000   1.0000   1.0000   0.0000
     0.0000   0.0000   0.0000

          k =-0.3771 0.3771 0.2828 (   907 PWs)   bands (ev):

    -6.4171  -6.3941  -6.3841  -6.1689  -6.1636   2.5916   6.7403  15.2046
    15.8539  19.5189  20.4008

     occupation numbers 
     1.0000   1.0000   1.0000   1.0000   1.0000   1.0000   1.0000   0.0000
     0.0000   0.0000   0.0000

          k =-0.3300 0.3300 0.2357 (   905 PWs)   bands (ev):

    -6.4145  -6.3903  -6.3819  -6.1821  -6.1719   2.1699   7.3963  15.1110
    16.1336  19.7507  20.3140

     occupation numbers 
     1.0000   1.0000   1.0000   1.0000   1.0000   1.0000   1.0000   0.0000
     0.0000   0.0000   0.0000

          k =-0.2828 0.2828 0.1886 (   912 PWs)   bands (ev):

    -6.4112  -6.3823  -6.3755  -6.2133  -6.1891   1.4559   8.6915  15.1517
    16.5169  19.9534  20.5108

     occupation numbers 
     1.0000   1.0000   1.0000   1.0000   1.0000   1.0000   1.0000   0.0000
     0.0000   0.0000   0.0000

          k =-0.2357 0.2357 0.1414 (   911 PWs)   bands (ev):

    -6.4083  -6.3730  -6.3676  -6.2497  -6.2156   0.7426  10.3217  15.3269
    16.9582  20.0560  21.0660

     occupation numbers 
     1.0000   1.0000   1.0000   1.0000   1.0000   1.0000   1.0635   0.0000
     0.0000   0.0000   0.0000

          k =-0.1886 0.1886 0.0943 (   916 PWs)   bands (ev):

    -6.4067  -6.3677  -6.3649  -6.2797  -6.2437   0.1380  12.1533  15.6319
    17.3867  20.1787  21.8406

     occupation numbers 
     1.0000   1.0000   1.0000   1.0000   1.0000   1.0000   0.0000   0.0000
     0.0000   0.0000   0.0000

          k =-0.1414 0.1414 0.0471 (   913 PWs)   bands (ev):

    -6.4062  -6.3753  -6.3716  -6.2906  -6.2645  -0.3205  14.0812  16.0697
    17.7031  20.3132  22.6526

     occupation numbers 
     1.0000   1.0000   1.0000   1.0000   1.0000   1.0000   0.0000   0.0000
     0.0000   0.0000   0.0000

          k =-0.0943 0.0943-0.0000 (   915 PWs)   bands (ev):

    -6.4055  -6.3905  -6.3845  -6.2873  -6.2751  -0.6196  15.8180  16.7400
    17.7995  20.3534  22.1781

     occupation numbers 
     1.0000   1.0000   1.0000   1.0000   1.0000   1.0000   0.0000   0.0000
     0.0000   0.0000   0.0000

          k = 0.0000-0.0000-0.1886 (   909 PWs)   bands (ev):

    -6.4267  -6.3602  -6.3602  -6.3060  -6.2627  -0.4019  15.5521  16.2797
    16.2797  19.3948  21.4293

     occupation numbers 
     1.0000   1.0000   1.0000   1.0000   1.0000   1.0000   0.0000   0.0000
     0.0000   0.0000   0.0000

          k = 0.0471-0.0471-0.2357 (   913 PWs)   bands (ev):

    -6.4341  -6.3443  -6.3411  -6.3127  -6.2508  -0.1034  14.0481  15.7816
    16.0644  19.3585  20.5655

     occupation numbers 
     1.0000   1.0000   1.0000   1.0000   1.0000   1.0000   0.0000   0.0000
     0.0000   0.0000   0.0000

          k = 0.0943-0.0943-0.2828 (   913 PWs)   bands (ev):

    -6.4347  -6.3496  -6.3323  -6.2956  -6.2278   0.3529  12.2146  15.3885
    15.6787  19.3083  20.6094

     occupation numbers 
     1.0000   1.0000   1.0000   1.0000   1.0000   1.0000   0.0000   0.0000
     0.0000   0.0000   0.0000

          k = 0.1414-0.1414-0.3300 (   915 PWs)   bands (ev):

    -6.4317  -6.3614  -6.3353  -6.2687  -6.1980   0.9527  10.4470  15.1290
    15.1516  18.9036  21.5156

     occupation numbers 
     1.0000   1.0000   1.0000   1.0000   1.0000   1.0000   0.8930   0.0000
     0.0000   0.0000   0.0000

          k = 0.1886-0.1886-0.3771 (   909 PWs)   bands (ev):

    -6.4280  -6.3706  -6.3434  -6.2408  -6.1723   1.6560   8.8665  14.6101
    15.0212  18.6360  22.1641

     occupation numbers 
     1.0000   1.0000   1.0000   1.0000   1.0000   1.0000   1.0000   0.0000
     0.0000   0.0000   0.0000

          k = 0.2357-0.2357-0.4243 (   906 PWs)   bands (ev):

    -6.4241  -6.3767  -6.3517  -6.2155  -6.1592   2.3522   7.6151  14.1299
    15.0751  18.5577  22.0503

     occupation numbers 
     1.0000   1.0000   1.0000   1.0000   1.0000   1.0000   1.0000   0.0000
     0.0000   0.0000   0.0000

          k =-0.4243 0.4243 0.2357 (   913 PWs)   bands (ev):

    -6.4182  -6.3807  -6.3571  -6.1971  -6.1629   2.7549   6.9922  13.7595
    15.2927  18.6600  21.7582

     occupation numbers 
     1.0000   1.0000   1.0000   1.0000   1.0000   1.0000   1.0000   0.0000
     0.0000   0.0000   0.0000

          k =-0.3771 0.3771 0.1886 (   913 PWs)   bands (ev):

    -6.4092  -6.3837  -6.3579  -6.1884  -6.1834   2.5346   7.3307  13.5298
    15.6650  18.9338  21.5142

     occupation numbers 
     1.0000   1.0000   1.0000   1.0000   1.0000   1.0000   1.0000   0.0000
     0.0000   0.0000   0.0000

          k =-0.3300 0.3300 0.1414 (   910 PWs)   bands (ev):

    -6.3989  -6.3854  -6.3538  -6.2172  -6.1910   1.8918   8.4244  13.4607
    16.1672  19.3745  21.3585

     occupation numbers 
     1.0000   1.0000   1.0000   1.0000   1.0000   1.0000   1.0000   0.0000
     0.0000   0.0000   0.0000

          k =-0.2828 0.2828 0.0943 (   909 PWs)   bands (ev):

    -6.3968  -6.3791  -6.3461  -6.2575  -6.2037   1.1746   9.9057  13.5698
    16.7485  19.9800  21.2833

     occupation numbers 
     1.0000   1.0000   1.0000   1.0000   1.0000   1.0000   1.0054   0.0000
     0.0000   0.0000   0.0000

          k =-0.2357 0.2357 0.0471 (   916 PWs)   bands (ev):

    -6.4014  -6.3694  -6.3408  -6.2927  -6.2234   0.5359  11.5597  13.9000
    17.3111  20.7421  21.2234

     occupation numbers 
     1.0000   1.0000   1.0000   1.0000   1.0000   1.0000   0.0000   0.0000
     0.0000   0.0000   0.0000

          k =-0.1886 0.1886-0.0000 (   915 PWs)   bands (ev):

    -6.4056  -6.3656  -6.3550  -6.3005  -6.2452   0.0308  13.0913  14.6444
    17.6880  20.9078  21.6929

     occupation numbers 
     1.0000   1.0000   1.0000   1.0000   1.0000   1.0000   0.0000   0.0000
     0.0000   0.0000   0.0000

          k =-0.0000 0.0000-0.2828 (   909 PWs)   bands (ev):

    -6.4523  -6.3362  -6.3125  -6.3125  -6.2431   0.1401  13.9566  15.2154
    15.2154  18.6615  19.4844

     occupation numbers 
     1.0000   1.0000   1.0000   1.0000   1.0000   1.0000   0.0000   0.0000
     0.0000   0.0000   0.0000

          k = 0.0471-0.0471-0.3300 (   906 PWs)   bands (ev):

    -6.4613  -6.3538  -6.2940  -6.2856  -6.2251   0.5418  12.6620  14.7675
    14.7740  18.5540  19.0176

     occupation numbers 
     1.0000   1.0000   1.0000   1.0000   1.0000   1.0000   0.0000   0.0000
     0.0000   0.0000   0.0000

          k = 0.0943-0.0943-0.3771 (   907 PWs)   bands (ev):

    -6.4603  -6.3667  -6.2927  -6.2636  -6.1957   1.0893  11.0788  14.1439
    14.4672  18.1561  19.8655

     occupation numbers 
     1.0000   1.0000   1.0000   1.0000   1.0000   1.0000   0.0022   0.0000
     0.0000   0.0000   0.0000

          k = 0.1414-0.1414-0.4243 (   906 PWs)   bands (ev):

    -6.4532  -6.3704  -6.2998  -6.2486  -6.1695   1.7508   9.5630  13.4433
    14.3330  17.9048  21.1813

     occupation numbers 
     1.0000   1.0000   1.0000   1.0000   1.0000   1.0000   1.0000   0.0000
     0.0000   0.0000   0.0000

          k = 0.1886-0.1886-0.4714 (   905 PWs)   bands (ev):

    -6.4450  -6.3641  -6.3086  -6.2394  -6.1564   2.4427   8.2850  12.8052
    14.3749  17.8359  22.6636

     occupation numbers 
     1.0000   1.0000   1.0000   1.0000   1.0000   1.0000   1.0000   0.0000
     0.0000   0.0000   0.0000

          k =-0.4714 0.4714 0.1886 (   915 PWs)   bands (ev):

    -6.4361  -6.3543  -6.3161  -6.2325  -6.1608   2.9510   7.4911  12.2938
    14.5949  17.9340  23.2738

     occupation numbers 
     1.0000   1.0000   1.0000   1.0000   1.0000   1.0000   1.0000   0.0000
     0.0000   0.0000   0.0000

          k =-0.4243 0.4243 0.1414 (   918 PWs)   bands (ev):

    -6.4244  -6.3508  -6.3201  -6.2241  -6.1824   2.9372   7.5283  11.9465
    14.9851  18.1906  22.9985

     occupation numbers 
     1.0000   1.0000   1.0000   1.0000   1.0000   1.0000   1.0000   0.0000
     0.0000   0.0000   0.0000

          k =-0.3771 0.3771 0.0943 (   906 PWs)   bands (ev):

    -6.4097  -6.3576  -6.3194  -6.2176  -6.2146   2.4177   8.3673  11.7965
    15.5241  18.6032  22.7674

     occupation numbers 
     1.0000   1.0000   1.0000   1.0000   1.0000   1.0000   1.0000   0.0000
     0.0000   0.0000   0.0000

          k =-0.3300 0.3300 0.0471 (   913 PWs)   bands (ev):

    -6.3937  -6.3720  -6.3141  -6.2607  -6.2088   1.7306   9.6064  11.9111
    16.1670  19.1720  22.5817

     occupation numbers 
     1.0000   1.0000   1.0000   1.0000   1.0000   1.0000   1.0000   0.0000
     0.0000   0.0000   0.0000

          k =-0.2828 0.2828-0.0000 (   909 PWs)   bands (ev):

    -6.3885  -6.3791  -6.3050  -6.3038  -6.2111   1.0772  10.7978  12.5241
    16.8231  19.8968  22.1490

     occupation numbers 
     1.0000   1.0000   1.0000   1.0000   1.0000   1.0000   0.1067   0.0000
     0.0000   0.0000   0.0000

          k = 0.0000-0.0000-0.3771 (   902 PWs)   bands (ev):

    -6.4816  -6.3737  -6.2565  -6.2565  -6.2205   0.8878  12.2618  14.2631
    14.2631  17.9563  18.0708

     occupation numbers 
     1.0000   1.0000   1.0000   1.0000   1.0000   1.0000   0.0000   0.0000
     0.0000   0.0000   0.0000

          k = 0.0471-0.0471-0.4243 (   909 PWs)   bands (ev):

    -6.4897  -6.3905  -6.2453  -6.2323  -6.1964   1.3800  11.1873  13.6231
    13.9103  17.5288  18.2980

     occupation numbers 
     1.0000   1.0000   1.0000   1.0000   1.0000   1.0000   0.0003   0.0000
     0.0000   0.0000   0.0000

          k = 0.0943-0.0943-0.4714 (   904 PWs)   bands (ev):

    -6.4850  -6.3973  -6.2508  -6.2196  -6.1679   1.9904   9.9801  12.6971
    13.7299  17.3194  19.3402

     occupation numbers 
     1.0000   1.0000   1.0000   1.0000   1.0000   1.0000   1.0138   0.0000
     0.0000   0.0000   0.0000

          k = 0.1414-0.1414-0.5185 (   906 PWs)   bands (ev):

    -6.4732  -6.3882  -6.2596  -6.2206  -6.1534   2.6500   8.8754  11.8016
    13.7334  17.2644  20.7954

     occupation numbers 
     1.0000   1.0000   1.0000   1.0000   1.0000   1.0000   1.0000   0.0000
     0.0000   0.0000   0.0000

          k =-0.5185 0.5185 0.1414 (   910 PWs)   bands (ev):

    -6.4602  -6.3614  -6.2684  -6.2341  -6.1570   3.1941   8.1025  11.0683
    13.9235  17.3557  22.4805

     occupation numbers 
     1.0000   1.0000   1.0000   1.0000   1.0000   1.0000   1.0000   0.0027
     0.0000   0.0000   0.0000

          k =-0.4714 0.4714 0.0943 (   916 PWs)   bands (ev):

    -6.4458  -6.3270  -6.2757  -6.2541  -6.1782   3.3355   7.9714  10.5484
    14.2929  17.5907  24.2737

     occupation numbers 
     1.0000   1.0000   1.0000   1.0000   1.0000   1.0000   1.0000   0.6385
     0.0000   0.0000   0.0000

          k =-0.4243 0.4243 0.0471 (   911 PWs)   bands (ev):

    -6.4289  -6.3163  -6.2810  -6.2557  -6.2117   2.9750   8.5397  10.3146
    14.8222  17.9703  24.3451

     occupation numbers 
     1.0000   1.0000   1.0000   1.0000   1.0000   1.0000   1.0000   1.0676
     0.0000   0.0000   0.0000

          k =-0.3771 0.3771 0.0000 (   911 PWs)   bands (ev):

    -6.4106  -6.3421  -6.2887  -6.2469  -6.2294   2.3653   9.2600  10.6710
    15.4726  18.4969  23.8579

     occupation numbers 
     1.0000   1.0000   1.0000   1.0000   1.0000   1.0000   1.0000   0.3182
     0.0000   0.0000   0.0000

          k = 0.0000-0.0000-0.4714 (   922 PWs)   bands (ev):

    -6.5098  -6.4126  -6.2019  -6.2019  -6.1990   1.8143  10.5283  13.5016
    13.5016  16.8989  17.6315

     occupation numbers 
     1.0000   1.0000   1.0000   1.0000   1.0000   1.0000   0.6936   0.0000
     0.0000   0.0000   0.0000

          k = 0.0471-0.0471-0.5185 (   908 PWs)   bands (ev):

    -6.5143  -6.4255  -6.2060  -6.1837  -6.1669   2.3648   9.6416  12.7892
    13.2664  16.7724  17.8921

     occupation numbers 
     1.0000   1.0000   1.0000   1.0000   1.0000   1.0000   1.0001   0.0000
     0.0000   0.0000   0.0000

          k = 0.0943-0.0943-0.5657 (   912 PWs)   bands (ev):

    -6.5045  -6.4243  -6.2141  -6.1824  -6.1497   2.9670   8.8552  11.6692
    13.2186  16.8063  18.9939

     occupation numbers 
     1.0000   1.0000   1.0000   1.0000   1.0000   1.0000   1.0000   0.0000
     0.0000   0.0000   0.0000

          k =-0.5657 0.5657 0.0943 (   919 PWs)   bands (ev):

    -6.4873  -6.4031  -6.2235  -6.1984  -6.1512   3.4791   8.3708  10.5727
    13.3624  16.9107  20.5437

     occupation numbers 
     1.0000   1.0000   1.0000   1.0000   1.0000   1.0000   1.0000   0.5710
     0.0000   0.0000   0.0000

          k =-0.5185 0.5185 0.0471 (   912 PWs)   bands (ev):

    -6.4690  -6.3616  -6.2346  -6.2289  -6.1691   3.6756   8.4212   9.6609
    13.6921  17.1305  22.3304

     occupation numbers 
     1.0000   1.0000   1.0000   1.0000   1.0000   1.0000   1.0000   1.0001
     0.0000   0.0000   0.0000

          k =-0.4714 0.4714 0.0000 (   901 PWs)   bands (ev):

    -6.4494  -6.3100  -6.2687  -6.2511  -6.1942   3.4555   8.9106   9.1874
    14.1901  17.4810  24.2731

     occupation numbers 
     1.0000   1.0000   1.0000   1.0000   1.0000   1.0000   1.0000   1.0000
     0.0000   0.0000   0.0000

          k =-0.0000 0.0000-0.5657 (   914 PWs)   bands (ev):

    -6.5315  -6.4444  -6.1820  -6.1580  -6.1580   2.8434   8.9055  12.9733
    12.9733  16.2528  17.3420

     occupation numbers 
     1.0000   1.0000   1.0000   1.0000   1.0000   1.0000   1.0000   0.0000
     0.0000   0.0000   0.0000

          k = 0.0471-0.0471-0.6128 (   915 PWs)   bands (ev):

    -6.5311  -6.4504  -6.1830  -6.1500  -6.1428   3.3533   8.2587  12.3018
    12.8681  16.3454  17.6580

     occupation numbers 
     1.0000   1.0000   1.0000   1.0000   1.0000   1.0000   1.0000   0.0000
     0.0000   0.0000   0.0000

          k =-0.6128 0.6128 0.0471 (   925 PWs)   bands (ev):

    -6.5153  -6.4400  -6.1912  -6.1614  -6.1423   3.7486   7.9557  11.1784
    12.9572  16.5629  18.8218

     occupation numbers 
     1.0000   1.0000   1.0000   1.0000   1.0000   1.0000   1.0000   0.0003
     0.0000   0.0000   0.0000

          k =-0.5657 0.5657-0.0000 (   922 PWs)   bands (ev):

    -6.4925  -6.4088  -6.2064  -6.1899  -6.1547   3.8579   8.1449  10.1119
    13.2370  16.7973  20.4580

     occupation numbers 
     1.0000   1.0000   1.0000   1.0000   1.0000   1.0000   1.0000   1.0477
     0.0000   0.0000   0.0000

          k =-0.0000 0.0000-0.6600 (   934 PWs)   bands (ev):

    -6.5436  -6.4626  -6.1727  -6.1340  -6.1340   3.7086   7.7263  12.7032
    12.7032  15.9485  17.1981

     occupation numbers 
     1.0000   1.0000   1.0000   1.0000   1.0000   1.0000   1.0000   0.0000
     0.0000   0.0000   0.0000

          k =-0.6600 0.6600-0.0000 (   928 PWs)   bands (ev):

    -6.5370  -6.4597  -6.1757  -6.1379  -6.1335   3.8663   7.6045  12.1421
    12.7334  16.2078  17.5808

     occupation numbers 
     1.0000   1.0000   1.0000   1.0000   1.0000   1.0000   1.0000   0.0000
     0.0000   0.0000   0.0000

          k = 0.0000-0.0943-0.1886 (   913 PWs)   bands (ev):

    -6.4183  -6.3633  -6.3619  -6.3011  -6.2598  -0.2933  14.4332  15.7072
    17.2347  20.0154  21.6322

     occupation numbers 
     1.0000   1.0000   1.0000   1.0000   1.0000   1.0000   0.0000   0.0000
     0.0000   0.0000   0.0000

          k = 0.0471-0.1414-0.2357 (   914 PWs)   bands (ev):

    -6.4182  -6.3590  -6.3454  -6.3000  -6.2408   0.1116  12.7810  14.9810
    17.0285  20.1898  21.1643

     occupation numbers 
     1.0000   1.0000   1.0000   1.0000   1.0000   1.0000   0.0000   0.0000
     0.0000   0.0000   0.0000

          k = 0.0943-0.1886-0.2828 (   912 PWs)   bands (ev):

    -6.4155  -6.3659  -6.3444  -6.2765  -6.2148   0.6671  10.9868  14.5758
    16.5850  19.8874  21.3349

     occupation numbers 
     1.0000   1.0000   1.0000   1.0000   1.0000   1.0000   0.0099   0.0000
     0.0000   0.0000   0.0000

          k = 0.1414-0.2357-0.3300 (   909 PWs)   bands (ev):

    -6.4129  -6.3775  -6.3512  -6.2427  -6.1894   1.3452   9.3208  14.3389
    16.0824  19.5467  21.2343

     occupation numbers 
     1.0000   1.0000   1.0000   1.0000   1.0000   1.0000   1.0000   0.0000
     0.0000   0.0000   0.0000

          k = 0.1886-0.2828-0.3771 (   907 PWs)   bands (ev):

    -6.4108  -6.3887  -6.3580  -6.2110  -6.1716   2.0689   7.9213  14.2305
    15.6482  19.3292  20.9834

     occupation numbers 
     1.0000   1.0000   1.0000   1.0000   1.0000   1.0000   1.0000   0.0000
     0.0000   0.0000   0.0000

          k =-0.4714 0.3771 0.2828 (   909 PWs)   bands (ev):

    -6.4086  -6.3967  -6.3618  -6.1902  -6.1645   2.6232   7.0252  14.2056
    15.3876  19.2276  20.8235

     occupation numbers 
     1.0000   1.0000   1.0000   1.0000   1.0000   1.0000   1.0000   0.0000
     0.0000   0.0000   0.0000

          k =-0.0000-0.0943-0.2828 (   907 PWs)   bands (ev):

    -6.4418  -6.3440  -6.3142  -6.3130  -6.2348   0.2468  13.0840  14.6501
    15.9877  19.3672  19.8018

     occupation numbers 
     1.0000   1.0000   1.0000   1.0000   1.0000   1.0000   0.0000   0.0000
     0.0000   0.0000   0.0000

          k = 0.0471-0.1414-0.3300 (   911 PWs)   bands (ev):

    -6.4407  -6.3565  -6.3130  -6.2851  -6.2111   0.7494  11.5991  13.9366
    15.6094  19.1652  20.2397

     occupation numbers 
     1.0000   1.0000   1.0000   1.0000   1.0000   1.0000   0.0000   0.0000
     0.0000   0.0000   0.0000

          k = 0.0943-0.1886-0.3771 (   911 PWs)   bands (ev):

    -6.4342  -6.3670  -6.3176  -6.2601  -6.1864   1.3822  10.0100  13.5313
    15.0906  18.8556  21.3603

     occupation numbers 
     1.0000   1.0000   1.0000   1.0000   1.0000   1.0000   1.0193   0.0000
     0.0000   0.0000   0.0000

          k = 0.1414-0.2357-0.4243 (   907 PWs)   bands (ev):

    -6.4270  -6.3732  -6.3224  -6.2402  -6.1685   2.0872   8.5871  13.2410
    14.6847  18.7197  22.0244

     occupation numbers 
     1.0000   1.0000   1.0000   1.0000   1.0000   1.0000   1.0000   0.0000
     0.0000   0.0000   0.0000

          k =-0.5185 0.4243 0.2357 (   910 PWs)   bands (ev):

    -6.4203  -6.3776  -6.3247  -6.2253  -6.1624   2.7085   7.5475  12.9779
    14.5387  18.7394  21.7776

     occupation numbers 
     1.0000   1.0000   1.0000   1.0000   1.0000   1.0000   1.0000   0.0000
     0.0000   0.0000   0.0000

          k =-0.4714 0.3771 0.1886 (   911 PWs)   bands (ev):

    -6.4121  -6.3822  -6.3254  -6.2168  -6.1689   2.9115   7.2451  12.7471
    14.6794  18.8997  21.5133

     occupation numbers 
     1.0000   1.0000   1.0000   1.0000   1.0000   1.0000   1.0000   0.0000
     0.0000   0.0000   0.0000

          k =-0.4243 0.3300 0.1414 (   907 PWs)   bands (ev):

    -6.4010  -6.3877  -6.3259  -6.2205  -6.1821   2.5194   7.8578  12.6135
    15.0520  19.1853  21.3767

     occupation numbers 
     1.0000   1.0000   1.0000   1.0000   1.0000   1.0000   1.0000   0.0000
     0.0000   0.0000   0.0000

          k =-0.3771 0.2828 0.0943 (   909 PWs)   bands (ev):

    -6.3953  -6.3877  -6.3246  -6.2438  -6.1927   1.8428   9.0585  12.6371
    15.5908  19.5734  21.3784

     occupation numbers 
     1.0000   1.0000   1.0000   1.0000   1.0000   1.0000   1.0000   0.0000
     0.0000   0.0000   0.0000

          k =-0.3300 0.2357 0.0471 (   913 PWs)   bands (ev):

    -6.4054  -6.3739  -6.3194  -6.2785  -6.2045   1.1542  10.5117  12.8909
    16.2166  20.0302  21.3623

     occupation numbers 
     1.0000   1.0000   1.0000   1.0000   1.0000   1.0000   0.7379   0.0000
     0.0000   0.0000   0.0000

          k =-0.2828 0.1886-0.0000 (   916 PWs)   bands (ev):

    -6.4147  -6.3628  -6.3162  -6.3092  -6.2211   0.5634  11.8757  13.5865
[...]

    -6.4544  -6.3748  -6.3104  -6.2716  -6.1903   3.1888   7.6964  11.3365
    13.8886  18.3440  22.7591

     occupation numbers 
     1.0000   1.0000   1.0000   1.0000   1.0000   1.0000   1.0000   0.0000
     0.0000   0.0000   0.0000

          k =-0.4712 0.3769 0.0942 (   914 PWs)   bands (ev):

    -6.4412  -6.3737  -6.3110  -6.2715  -6.2114   2.9845   8.0259  11.0671
    14.2916  18.6666  22.5108

     occupation numbers 
     1.0000   1.0000   1.0000   1.0000   1.0000   1.0000   1.0000   0.0018
     0.0000   0.0000   0.0000

          k =-0.4240 0.3298 0.0471 (   914 PWs)   bands (ev):

    -6.4258  -6.3865  -6.3217  -6.2607  -6.2347   2.4061   8.9398  11.0613
    14.8581  19.1132  22.3546

     occupation numbers 
     1.0000   1.0000   1.0000   1.0000   1.0000   1.0000   1.0000   0.0020
     0.0000   0.0000   0.0000

          k =-0.3769 0.2827 0.0000 (   911 PWs)   bands (ev):

    -6.4100  -6.4081  -6.3278  -6.2842  -6.2300   1.7419   9.8968  11.5779
    15.5287  19.6350  22.1084

     occupation numbers 
     1.0000   1.0000   1.0000   1.0000   1.0000   1.0000   1.0066   0.0000
     0.0000   0.0000   0.0000

          k = 0.0000-0.0942-0.4712 (   910 PWs)   bands (ev):

    -6.5175  -6.4279  -6.2617  -6.2260  -6.2039   1.8851  10.3016  12.9539
    13.4000  17.4859  18.2845

     occupation numbers 
     1.0000   1.0000   1.0000   1.0000   1.0000   1.0000   1.0612   0.0000
     0.0000   0.0000   0.0000

          k = 0.0471-0.1413-0.5183 (   917 PWs)   bands (ev):

    -6.5090  -6.4319  -6.2672  -6.2147  -6.1871   2.4975   9.3950  12.0324
    13.0537  17.5941  19.1929

     occupation numbers 
     1.0000   1.0000   1.0000   1.0000   1.0000   1.0000   1.0000   0.0000
     0.0000   0.0000   0.0000

          k =-0.6125 0.5183 0.1413 (   913 PWs)   bands (ev):

    -6.4933  -6.4183  -6.2755  -6.2266  -6.1772   3.1006   8.6274  11.0698
    13.0210  17.6741  20.6627

     occupation numbers 
     1.0000   1.0000   1.0000   1.0000   1.0000   1.0000   1.0000   0.0017
     0.0000   0.0000   0.0000

          k =-0.5654 0.4712 0.0942 (   917 PWs)   bands (ev):

    -6.4776  -6.3854  -6.2853  -6.2527  -6.1828   3.4891   8.2451  10.2846
    13.2209  17.8572  22.3807

     occupation numbers 
     1.0000   1.0000   1.0000   1.0000   1.0000   1.0000   1.0000   1.0708
     0.0000   0.0000   0.0000

          k =-0.5183 0.4240 0.0471 (   913 PWs)   bands (ev):

    -6.4615  -6.3451  -6.3028  -6.2766  -6.2026   3.4362   8.4639   9.7761
    13.6175  18.1655  23.9558

     occupation numbers 
     1.0000   1.0000   1.0000   1.0000   1.0000   1.0000   1.0000   1.0011
     0.0000   0.0000   0.0000

          k =-0.4712 0.3769 0.0000 (   912 PWs)   bands (ev):

    -6.4438  -6.3484  -6.3119  -6.2709  -6.2296   2.9966   8.8937   9.9130
    14.1789  18.5960  23.7747

     occupation numbers 
     1.0000   1.0000   1.0000   1.0000   1.0000   1.0000   1.0000   1.0082
     0.0000   0.0000   0.0000

          k =-0.0000-0.0942-0.5654 (   915 PWs)   bands (ev):

    -6.5378  -6.4577  -6.2269  -6.1847  -6.1820   2.8869   8.8884  12.4423
    12.6262  16.9257  17.9778

     occupation numbers 
     1.0000   1.0000   1.0000   1.0000   1.0000   1.0000   1.0000   0.0000
     0.0000   0.0000   0.0000

          k =-0.6596 0.5654 0.0942 (   920 PWs)   bands (ev):

    -6.5237  -6.4534  -6.2335  -6.1959  -6.1680   3.4134   8.3629  11.3716
    12.5263  17.2431  18.9400

     occupation numbers 
     1.0000   1.0000   1.0000   1.0000   1.0000   1.0000   1.0000   0.0000
     0.0000   0.0000   0.0000

          k =-0.6125 0.5183 0.0471 (   919 PWs)   bands (ev):

    -6.5028  -6.4286  -6.2440  -6.2243  -6.1700   3.7493   8.2503  10.2452
    12.7035  17.4633  20.4972

     occupation numbers 
     1.0000   1.0000   1.0000   1.0000   1.0000   1.0000   1.0000   1.0823
     0.0000   0.0000   0.0000

          k =-0.5654 0.4712 0.0000 (   913 PWs)   bands (ev):

    -6.4821  -6.3847  -6.2696  -6.2533  -6.1848   3.7409   8.6506   9.3447
    13.0755  17.7594  22.3146

     occupation numbers 
     1.0000   1.0000   1.0000   1.0000   1.0000   1.0000   1.0000   1.0000
     0.0000   0.0000   0.0000

          k =-0.7067 0.6125 0.0471 (   919 PWs)   bands (ev):

    -6.5489  -6.4748  -6.2062  -6.1751  -6.1576   3.7093   7.8262  12.1808
    12.2546  16.6594  17.8251

     occupation numbers 
     1.0000   1.0000   1.0000   1.0000   1.0000   1.0000   1.0000   0.0000
     0.0000   0.0000   0.0000

          k =-0.6596 0.5654 0.0000 (   923 PWs)   bands (ev):

    -6.5289  -6.4613  -6.2153  -6.1982  -6.1583   3.8629   7.8580  11.1466
    12.3651  17.1289  18.8559

     occupation numbers 
     1.0000   1.0000   1.0000   1.0000   1.0000   1.0000   1.0000   0.0004
     0.0000   0.0000   0.0000

          k =-0.0000-0.1885-0.3769 (   908 PWs)   bands (ev):

    -6.4567  -6.3908  -6.3303  -6.2837  -6.2215   1.2699  10.7742  12.6425
    15.0944  19.5506  20.2675

     occupation numbers 
     1.0000   1.0000   1.0000   1.0000   1.0000   1.0000   0.1065   0.0000
     0.0000   0.0000   0.0000

          k = 0.0471-0.2356-0.4240 (   913 PWs)   bands (ev):

    -6.4429  -6.4006  -6.3304  -6.2611  -6.2129   1.9138   9.6409  11.9915
    14.4597  19.5311  21.2110

     occupation numbers 
     1.0000   1.0000   1.0000   1.0000   1.0000   1.0000   1.0001   0.0000
     0.0000   0.0000   0.0000

          k =-0.6125 0.4240 0.2356 (   912 PWs)   bands (ev):

    -6.4313  -6.4048  -6.3247  -6.2586  -6.2015   2.5821   8.4892  11.7458
    13.9259  19.4493  21.5762

     occupation numbers 
     1.0000   1.0000   1.0000   1.0000   1.0000   1.0000   1.0000   0.0000
     0.0000   0.0000   0.0000

          k =-0.5654 0.3769 0.1885 (   914 PWs)   bands (ev):

    -6.4277  -6.4044  -6.3114  -6.2709  -6.1918   3.0728   7.7270  11.6743
    13.6200  19.4102  21.4389

     occupation numbers 
     1.0000   1.0000   1.0000   1.0000   1.0000   1.0000   1.0000   0.0000
     0.0000   0.0000   0.0000

          k =-0.0000-0.1885-0.4712 (   918 PWs)   bands (ev):

    -6.4772  -6.4126  -6.3063  -6.2280  -6.2068   2.1425   9.8012  11.9181
    13.4470  18.9009  19.8038

     occupation numbers 
     1.0000   1.0000   1.0000   1.0000   1.0000   1.0000   1.0016   0.0000
     0.0000   0.0000   0.0000

          k =-0.6596 0.4712 0.1885 (   914 PWs)   bands (ev):

    -6.4587  -6.4111  -6.3115  -6.2284  -6.1961   2.7751   9.0004  11.2329
    12.9022  19.1521  20.9424

     occupation numbers 
     1.0000   1.0000   1.0000   1.0000   1.0000   1.0000   1.0000   0.0001
     0.0000   0.0000   0.0000

          k =-0.6125 0.4240 0.1413 (   910 PWs)   bands (ev):

    -6.4451  -6.3941  -6.3135  -6.2548  -6.1836   3.2952   8.3324  10.7827
    12.6695  19.2965  22.1949

     occupation numbers 
     1.0000   1.0000   1.0000   1.0000   1.0000   1.0000   1.0000   0.0976
     0.0000   0.0000   0.0000

          k =-0.5654 0.3769 0.0942 (   915 PWs)   bands (ev):

    -6.4358  -6.3799  -6.3099  -6.2773  -6.1859   3.4440   8.1765  10.4829
    12.7780  19.5124  22.1799

     occupation numbers 
     1.0000   1.0000   1.0000   1.0000   1.0000   1.0000   1.0000   0.7511
     0.0000   0.0000   0.0000

          k =-0.5183 0.3298 0.0471 (   910 PWs)   bands (ev):

    -6.4252  -6.3896  -6.3216  -6.2595  -6.2025   3.1177   8.6324  10.4122
    13.1660  19.7837  22.0326

     occupation numbers 
     1.0000   1.0000   1.0000   1.0000   1.0000   1.0000   1.0000   0.9156
     0.0000   0.0000   0.0000

          k =-0.4712 0.2827 0.0000 (   907 PWs)   bands (ev):

    -6.4170  -6.4131  -6.3278  -6.2314  -6.2300   2.5345   9.2532  10.8514
    13.7578  19.9574  21.6843

     occupation numbers 
     1.0000   1.0000   1.0000   1.0000   1.0000   1.0000   1.0000   0.0450
     0.0000   0.0000   0.0000

          k =-0.7067 0.5183 0.1413 (   912 PWs)   bands (ev):

    -6.4935  -6.4353  -6.2729  -6.2045  -6.1828   3.0663   8.8815  11.4180
    12.2128  18.4805  19.4819

     occupation numbers 
     1.0000   1.0000   1.0000   1.0000   1.0000   1.0000   1.0000   0.0000
     0.0000   0.0000   0.0000

          k =-0.6596 0.4712 0.0942 (   910 PWs)   bands (ev):

    -6.4704  -6.4224  -6.2845  -6.2301  -6.1694   3.5473   8.5628  10.5492
    11.9476  18.9081  20.7244

     occupation numbers 
     1.0000   1.0000   1.0000   1.0000   1.0000   1.0000   1.0000   0.5704
     0.0000   0.0000   0.0000

          k =-0.6125 0.4240 0.0471 (   916 PWs)   bands (ev):

    -6.4532  -6.3869  -6.3074  -6.2568  -6.1706   3.7450   8.6518   9.7126
    12.1132  19.1870  22.4157

     occupation numbers 
     1.0000   1.0000   1.0000   1.0000   1.0000   1.0000   1.0000   1.0003
     0.0000   0.0000   0.0000

          k =-0.5654 0.3769 0.0000 (   912 PWs)   bands (ev):

    -6.4389  -6.3473  -6.3451  -6.2662  -6.1849   3.5619   8.9595   9.4048
    12.5401  19.5156  23.3545

     occupation numbers 
     1.0000   1.0000   1.0000   1.0000   1.0000   1.0000   1.0000   1.0000
     0.0000   0.0000   0.0000

          k =-0.7067 0.5183 0.0471 (   914 PWs)   bands (ev):

    -6.5025  -6.4491  -6.2407  -6.2163  -6.1577   3.7740   8.1718  11.1628
    11.5860  18.2733  19.3192

     occupation numbers 
     1.0000   1.0000   1.0000   1.0000   1.0000   1.0000   1.0000   0.0003
     0.0000   0.0000   0.0000

          k =-0.6596 0.4712-0.0000 (   919 PWs)   bands (ev):

    -6.4747  -6.4271  -6.2655  -6.2414  -6.1582   3.8884   8.3862  10.2250
    11.6667  18.8247  20.6465

     occupation numbers 
     1.0000   1.0000   1.0000   1.0000   1.0000   1.0000   1.0000   1.0833
     0.0000   0.0000   0.0000

          k =-0.7067 0.4240 0.1413 (   918 PWs)   bands (ev):

    -6.4266  -6.4169  -6.3206  -6.2396  -6.1840   3.3149   8.8624  10.3501
    12.1780  20.1591  21.3581

     occupation numbers 
     1.0000   1.0000   1.0000   1.0000   1.0000   1.0000   1.0000   1.0157
     0.0000   0.0000   0.0000

          k =-0.6596 0.3769 0.0942 (   914 PWs)   bands (ev):

    -6.4215  -6.3877  -6.3372  -6.2608  -6.1703   3.6750   8.7455   9.8863
    11.7705  20.4524  22.1415

     occupation numbers 
     1.0000   1.0000   1.0000   1.0000   1.0000   1.0000   1.0000   1.0057
     0.0000   0.0000   0.0000

          k =-0.7067 0.4240 0.0471 (   910 PWs)   bands (ev):

    -6.4322  -6.4208  -6.3084  -6.2502  -6.1578   3.8453   8.7174  10.0944
    11.1794  20.1809  21.1900

     occupation numbers 
     1.0000   1.0000   1.0000   1.0000   1.0000   1.0000   1.0000   1.0499
     0.0002   0.0000   0.0000

          k =-0.6596 0.3769 0.0000 (   913 PWs)   bands (ev):

    -6.4204  -6.3819  -6.3486  -6.2610  -6.1580   3.8879   9.1452   9.4156
    11.2021  20.6681  22.5270

     occupation numbers 
     1.0000   1.0000   1.0000   1.0000   1.0000   1.0000   1.0000   1.0000
     0.0001   0.0000   0.0000

     the Fermi energy is    10.6128 ev

!    total energy              =    -870.55533913 Ry
     total all-electron energy =    -41764.083805 Ry
     estimated scf accuracy    <          9.9E-13 Ry
     smearing contrib. (-TS)   =       0.00003359 Ry
     internal energy E=F+TS    =    -870.55537272 Ry

     The total energy is F=E-TS. E is the sum of the following terms:
     one-electron contribution =     -30.21735684 Ry
     hartree contribution      =      27.12916458 Ry
     xc contribution           =     -44.33843061 Ry
     ewald contribution        =     -94.68999099 Ry
     one-center paw contrib.   =    -728.43875887 Ry
      -> PAW hartree energy AE =     100.19186744 Ry
      -> PAW hartree energy PS =     -99.93881530 Ry
      -> PAW xc energy AE      =    -772.53604944 Ry
      -> PAW xc energy PS      =      43.84423843 Ry
      -> total E_H with PAW    =      27.38221672 Ry
      -> total E_XC with PAW   =    -773.03024162 Ry

     convergence has been achieved in  16 iterations

     Forces acting on atoms (cartesian axes, Ry/au):

     atom    1 type  1   force =     0.00000000    0.00000000    0.00000000
     The non-local contrib.  to forces
     atom    1 type  1   force =     0.00000000    0.00000000   -0.00000000
     The ionic contribution  to forces
     atom    1 type  1   force =    -0.00000000   -0.00000000   -0.00000000
     The local contribution  to forces
     atom    1 type  1   force =    -0.00000000   -0.00000000   -0.00000000
     The core correction contribution to forces
     atom    1 type  1   force =     0.00000000    0.00000000    0.00000000
     The Hubbard contrib.    to forces
     atom    1 type  1   force =     0.00000000    0.00000000    0.00000000
     The SCF correction term to forces
     atom    1 type  1   force =    -0.00000000   -0.00000000    0.00000000

     Total force =     0.000000     Total SCF correction =     0.000000


     Computing stress (Cartesian axis) and pressure

          total   stress  (Ry/bohr**3)                   (kbar)     P=        0.08
   0.00000053  -0.00000000   0.00000000            0.08       -0.00        0.00
   0.00000000   0.00000053  -0.00000000            0.00        0.08       -0.00
   0.00000000   0.00000000   0.00000053            0.00        0.00        0.08

     kinetic stress (kbar)  14210.61     -0.00      0.00
                               -0.00  14210.61     -0.00
                                0.00     -0.00  14210.61

     local   stress (kbar)   5579.82      0.00      0.00
                                0.00   5579.82     -0.00
                                0.00     -0.00   5579.82

     nonloc. stress (kbar)   1266.45      0.00      0.00
                                0.00   1266.45     -0.00
                                0.00     -0.00   1266.45

     hartree stress (kbar)   6225.41     -0.00     -0.00
                               -0.00   6225.41     -0.00
                               -0.00     -0.00   6225.41

     exc-cor stress (kbar)  14173.09     -0.00     -0.00
                               -0.00  14173.09     -0.00
                               -0.00     -0.00  14173.09

     corecor stress (kbar) -19726.51      0.00      0.00
                                0.00 -19726.51     -0.00
                                0.00     -0.00 -19726.51

     ewald   stress (kbar) -21728.80      0.00     -0.00
                                0.00 -21728.80      0.00
                               -0.00      0.00 -21728.80

     hubbard stress (kbar)      0.00      0.00      0.00
                                0.00      0.00      0.00
                                0.00      0.00      0.00

     DFT-D   stress (kbar)      0.00      0.00      0.00
                                0.00      0.00      0.00
                                0.00      0.00      0.00

     XDM     stress (kbar)      0.00      0.00      0.00
                                0.00      0.00      0.00
                                0.00      0.00      0.00

     dft-nl  stress (kbar)      0.00      0.00      0.00
                                0.00      0.00      0.00
                                0.00      0.00      0.00

     TS-vdW  stress (kbar)      0.00      0.00      0.00
                                0.00      0.00      0.00
                                0.00      0.00      0.00

     MDB     stress (kbar)      0.00      0.00      0.00
                                0.00      0.00      0.00
                                0.00      0.00      0.00

     3D-RISM stress (kbar)      0.00      0.00      0.00
                                0.00      0.00      0.00
                                0.00      0.00      0.00


     Writing all to output data dir ../out/aiida.save/ :
     XML data file, charge density, pseudopotentials, collected wavefunctions
 
     init_run     :      7.28s CPU      7.43s WALL (       2 calls)
     electrons    :    755.73s CPU    756.88s WALL (       6 calls)
     update_pot   :      0.54s CPU      0.54s WALL (       4 calls)
     forces       :      4.89s CPU      4.89s WALL (       6 calls)
     stress       :     26.31s CPU     26.32s WALL (       6 calls)

     Called by init_run:
     wfcinit      :      5.73s CPU      5.78s WALL (       2 calls)
     wfcinit:atom :      0.87s CPU      0.87s WALL (     240 calls)
     wfcinit:wfcr :      4.00s CPU      4.05s WALL (     240 calls)
     potinit      :      0.55s CPU      0.59s WALL (       2 calls)
     hinit0       :      0.60s CPU      0.62s WALL (       2 calls)

     Called by electrons:
     c_bands      :    653.20s CPU    654.19s WALL (      91 calls)
     sum_band     :     82.73s CPU     82.86s WALL (      91 calls)
     v_of_rho     :      1.63s CPU      1.66s WALL (      92 calls)
     v_h          :      0.21s CPU      0.21s WALL (      92 calls)
     v_xc         :      1.60s CPU      1.63s WALL (     104 calls)
     newd         :      7.68s CPU      7.72s WALL (      92 calls)
                                        7.72s GPU  (      92 calls)
     PAW_pot      :     10.42s CPU     10.44s WALL (      96 calls)
     mix_rho      :      1.80s CPU      1.80s WALL (      91 calls)

     Called by c_bands:
     init_us_2    :     29.15s CPU     29.22s WALL (   24000 calls)
     cegterg      :    626.68s CPU    627.59s WALL (   10935 calls)

     Called by sum_band:
     sum_band:wei :      0.08s CPU      0.08s WALL (      91 calls)
     sum_band:loo :     72.42s CPU     72.54s WALL (      91 calls)
     sum_band:buf :      0.36s CPU      0.36s WALL (   10920 calls)
     sum_band:ini :     13.03s CPU     13.06s WALL (   10920 calls)
     sum_band:cal :     11.17s CPU     11.18s WALL (   11400 calls)
     sum_band:bec :      6.93s CPU      6.94s WALL (   11400 calls)
     addusdens    :      9.62s CPU      9.63s WALL (      91 calls)
                                        9.63s GPU  (      91 calls)
     addusd:skk   :      0.04s CPU      0.05s WALL (      91 calls)
                                        0.04s GPU  (      91 calls)

     Called by *egterg:
     cdiaghg      :     57.04s CPU     61.12s WALL (   45841 calls)
                                       54.51s GPU  (   45841 calls)
     cegterg:over :     70.07s CPU     70.17s WALL (   36001 calls)
     cegterg:upda :     60.10s CPU     60.14s WALL (   36001 calls)
     cegterg:last :     14.96s CPU     14.98s WALL (   28944 calls)
     h_psi        :    316.20s CPU    323.73s WALL (   47176 calls)
                                      317.04s GPU  (   47176 calls)
     s_psi        :     21.63s CPU     21.68s WALL (   47176 calls)
     g_psi        :      0.12s CPU      5.76s WALL (   36001 calls)
                                        0.24s GPU  (   36001 calls)

     Called by h_psi:
     h_psi:calbec :     46.57s CPU     53.58s WALL (   47176 calls)
                                       40.47s GPU  (   47176 calls)
     vloc_psi     :    202.33s CPU    209.50s WALL (   47176 calls)
                                      202.63s GPU  (   47176 calls)
     add_vuspsi   :     21.86s CPU     30.53s WALL (   47176 calls)
                                       23.66s GPU  (   47176 calls)

     General routines
     calbec       :     64.16s CPU     64.29s WALL (   70816 calls)
     fft          :      0.96s CPU      1.18s WALL (    1343 calls)
                                        0.83s GPU  (    1251 calls)
     ffts         :      0.11s CPU      0.13s WALL (     183 calls)
                                        0.06s GPU  (      91 calls)
     fftw         :     78.17s CPU     91.86s WALL (  105272 calls)
                                       72.29s GPU  (  105272 calls)
     interpolate  :      0.23s CPU      0.23s WALL (      92 calls)
 
     Parallel routines

     PAW routines
     PAW_pot      :     10.42s CPU     10.44s WALL (      96 calls)
     PAW_symme    :      0.06s CPU      0.06s WALL (     187 calls)
 
     PWSCF        :  13m17.30s CPU  13m18.68s WALL

 
   This run was terminated on:  16:24:22   9Apr2025            

=------------------------------------------------------------------------------=
   JOB DONE.
=------------------------------------------------------------------------------=
