
     Program PWSCF v.7.4 starts on 17May2025 at 16: 5:35 

     This program is part of the open-source Quantum ESPRESSO suite
     for quantum simulation of materials; please cite
         "P. Giannozzi et al., J. Phys.:Condens. Matter 21 395502 (2009);
         "P. Giannozzi et al., J. Phys.:Condens. Matter 29 465901 (2017);
         "P. Giannozzi et al., J. Chem. Phys. 152 154105 (2020);
          URL http://www.quantum-espresso.org", 
     in publications or presentations arising from this work. More details at
     http://www.quantum-espresso.org/quote

     Parallel version (MPI), running on     2 processors

     MPI processes distributed on     1 nodes
     26459 MiB available memory on the printing compute node when the environment starts
 
     Waiting for input...
     Reading input from standard input

     Current dimensions of program PWSCF are:
     Max number of different atomic species (ntypx) = 10
     Max number of k-points (npk) =  40000
     Max angular momentum in pseudopotentials (lmaxx) =  4
     file Pb.pbe-dn-kjpaw_psl.0.2.2.UPF: wavefunction(s)  6S renormalized
     Found identity + (  0.0000 -0.5000 -0.5000) symmetry
     This is a supercell, fractional translations are disabled
     Message from routine setup:
     using ibrav=0 with symmetry is DISCOURAGED, use correct ibrav instead
 
     R & G space division:  proc/nbgrp/npool/nimage =       2
     Subspace diagonalization in iterative solution of the eigenvalue problem:
     a serial algorithm will be used

 
     Parallelization info
     --------------------
     sticks:   dense  smooth     PW     G-vecs:    dense   smooth      PW
     Min        1123     561    166                40398    14272    2276
     Max        1126     564    167                40399    14273    2277
     Sum        2249    1125    333                80797    28545    4553
 
     Using Slab Decomposition
 


     bravais-lattice index     =            0
     lattice parameter (alat)  =       9.4288  a.u.
     unit-cell volume          =     838.2434 (a.u.)^3
     number of atoms/cell      =            4
     number of atomic types    =            1
     number of electrons       =        56.00
     number of Kohn-Sham states=           34
     kinetic-energy cutoff     =      40.0000  Ry
     charge density cutoff     =     320.0000  Ry
     scf convergence threshold =      8.0E-10
     mixing beta               =       0.4000
     number of iterations used =            8  plain     mixing
     Exchange-correlation= SLA  PW   PBX  PBC
                           (   1   4   3   4   0   0   0)

     GPU acceleration is ACTIVE.  1 visible GPUs per MPI rank
     GPU-aware MPI enabled


     GPU used by master process:

        Device Number: 0
        Device name: NVIDIA RTX A2000 12GB
        Compute capability : 86
        Ratio of single to double precision performance  : 32
        Memory Clock Rate (KHz): 6001000
        Memory Bus Width (bits): 192
        Peak Memory Bandwidth (GB/s): 288.05

     celldm(1)=   9.428806  celldm(2)=   0.000000  celldm(3)=   0.000000
     celldm(4)=   0.000000  celldm(5)=   0.000000  celldm(6)=   0.000000

     crystal axes: (cart. coord. in units of alat)
               a(1) = (   1.000000   0.000000   0.000000 )  
               a(2) = (   0.000000   1.000000   0.000000 )  
               a(3) = (   0.000000   0.000000   1.000000 )  

     reciprocal axes: (cart. coord. in units 2 pi/alat)
               b(1) = (  1.000000  0.000000  0.000000 )  
               b(2) = (  0.000000  1.000000  0.000000 )  
               b(3) = (  0.000000  0.000000  1.000000 )  


     PseudoPot. # 1 for Pb read from file:
     ../pseudo/Pb.pbe-dn-kjpaw_psl.0.2.2.UPF
     MD5 check sum: 9d431e6316058b74ade52399a6cf67da
     Pseudo is Projector augmented-wave + core cor, Zval = 14.0
     Generated using "atomic" code by A. Dal Corso  v.5.0.99 svn rev. 10869
     Shape of augmentation charge: PSQ
     Using radial grid of 1281 points,  6 beta functions with: 
                l(1) =   0
                l(2) =   0
                l(3) =   1
                l(4) =   1
                l(5) =   2
                l(6) =   2
     Q(r) pseudized with 0 coefficients 


     atomic species   valence    mass     pseudopotential
     Pb               14.00   207.20000     Pb( 1.00)

     48 Sym. Ops., with inversion, found


                                    s                        frac. trans.

      isym =  1     identity                                     

 cryst.   s( 1) = (     1          0          0      )
                  (     0          1          0      )
                  (     0          0          1      )

 cart.    s( 1) = (  1.0000000  0.0000000  0.0000000 )
                  (  0.0000000  1.0000000  0.0000000 )
                  (  0.0000000  0.0000000  1.0000000 )


      isym =  2     180 deg rotation - cart. axis [0,0,1]        

 cryst.   s( 2) = (    -1          0          0      )
                  (     0         -1          0      )
                  (     0          0          1      )

 cart.    s( 2) = ( -1.0000000  0.0000000  0.0000000 )
                  (  0.0000000 -1.0000000  0.0000000 )
                  (  0.0000000  0.0000000  1.0000000 )


      isym =  3     180 deg rotation - cart. axis [0,1,0]        

 cryst.   s( 3) = (    -1          0          0      )
                  (     0          1          0      )
                  (     0          0         -1      )

 cart.    s( 3) = ( -1.0000000  0.0000000  0.0000000 )
                  (  0.0000000  1.0000000  0.0000000 )
                  (  0.0000000  0.0000000 -1.0000000 )


      isym =  4     180 deg rotation - cart. axis [1,0,0]        

 cryst.   s( 4) = (     1          0          0      )
                  (     0         -1          0      )
                  (     0          0         -1      )

 cart.    s( 4) = (  1.0000000  0.0000000  0.0000000 )
                  (  0.0000000 -1.0000000  0.0000000 )
                  (  0.0000000  0.0000000 -1.0000000 )


      isym =  5     180 deg rotation - cart. axis [1,1,0]        

 cryst.   s( 5) = (     0          1          0      )
                  (     1          0          0      )
                  (     0          0         -1      )

 cart.    s( 5) = (  0.0000000  1.0000000  0.0000000 )
                  (  1.0000000  0.0000000  0.0000000 )
                  (  0.0000000  0.0000000 -1.0000000 )


      isym =  6     180 deg rotation - cart. axis [1,-1,0]       

 cryst.   s( 6) = (     0         -1          0      )
                  (    -1          0          0      )
                  (     0          0         -1      )

 cart.    s( 6) = (  0.0000000 -1.0000000  0.0000000 )
                  ( -1.0000000  0.0000000  0.0000000 )
                  (  0.0000000  0.0000000 -1.0000000 )


      isym =  7      90 deg rotation - cart. axis [0,0,-1]       

 cryst.   s( 7) = (     0         -1          0      )
                  (     1          0          0      )
                  (     0          0          1      )

 cart.    s( 7) = (  0.0000000  1.0000000  0.0000000 )
                  ( -1.0000000  0.0000000  0.0000000 )
                  (  0.0000000  0.0000000  1.0000000 )


      isym =  8      90 deg rotation - cart. axis [0,0,1]        

 cryst.   s( 8) = (     0          1          0      )
                  (    -1          0          0      )
                  (     0          0          1      )

 cart.    s( 8) = (  0.0000000 -1.0000000  0.0000000 )
                  (  1.0000000  0.0000000  0.0000000 )
                  (  0.0000000  0.0000000  1.0000000 )


      isym =  9     180 deg rotation - cart. axis [1,0,1]        

 cryst.   s( 9) = (     0          0          1      )
                  (     0         -1          0      )
                  (     1          0          0      )

 cart.    s( 9) = (  0.0000000  0.0000000  1.0000000 )
                  (  0.0000000 -1.0000000  0.0000000 )
                  (  1.0000000  0.0000000  0.0000000 )


      isym = 10     180 deg rotation - cart. axis [-1,0,1]       

 cryst.   s(10) = (     0          0         -1      )
                  (     0         -1          0      )
                  (    -1          0          0      )

 cart.    s(10) = (  0.0000000  0.0000000 -1.0000000 )
                  (  0.0000000 -1.0000000  0.0000000 )
                  ( -1.0000000  0.0000000  0.0000000 )


      isym = 11      90 deg rotation - cart. axis [0,1,0]        

 cryst.   s(11) = (     0          0         -1      )
                  (     0          1          0      )
                  (     1          0          0      )

 cart.    s(11) = (  0.0000000  0.0000000  1.0000000 )
                  (  0.0000000  1.0000000  0.0000000 )
                  ( -1.0000000  0.0000000  0.0000000 )


      isym = 12      90 deg rotation - cart. axis [0,-1,0]       

 cryst.   s(12) = (     0          0          1      )
                  (     0          1          0      )
                  (    -1          0          0      )

 cart.    s(12) = (  0.0000000  0.0000000 -1.0000000 )
                  (  0.0000000  1.0000000  0.0000000 )
                  (  1.0000000  0.0000000  0.0000000 )


      isym = 13     180 deg rotation - cart. axis [0,1,1]        

 cryst.   s(13) = (    -1          0          0      )
                  (     0          0          1      )
                  (     0          1          0      )

 cart.    s(13) = ( -1.0000000  0.0000000  0.0000000 )
                  (  0.0000000  0.0000000  1.0000000 )
                  (  0.0000000  1.0000000  0.0000000 )


      isym = 14     180 deg rotation - cart. axis [0,1,-1]       

 cryst.   s(14) = (    -1          0          0      )
                  (     0          0         -1      )
                  (     0         -1          0      )

 cart.    s(14) = ( -1.0000000  0.0000000  0.0000000 )
                  (  0.0000000  0.0000000 -1.0000000 )
                  (  0.0000000 -1.0000000  0.0000000 )


      isym = 15      90 deg rotation - cart. axis [-1,0,0]       

 cryst.   s(15) = (     1          0          0      )
                  (     0          0         -1      )
                  (     0          1          0      )

 cart.    s(15) = (  1.0000000  0.0000000  0.0000000 )
                  (  0.0000000  0.0000000  1.0000000 )
                  (  0.0000000 -1.0000000  0.0000000 )


      isym = 16      90 deg rotation - cart. axis [1,0,0]        

 cryst.   s(16) = (     1          0          0      )
                  (     0          0          1      )
                  (     0         -1          0      )

 cart.    s(16) = (  1.0000000  0.0000000  0.0000000 )
                  (  0.0000000  0.0000000 -1.0000000 )
                  (  0.0000000  1.0000000  0.0000000 )


      isym = 17     120 deg rotation - cart. axis [-1,-1,-1]     

 cryst.   s(17) = (     0          0          1      )
                  (     1          0          0      )
                  (     0          1          0      )

 cart.    s(17) = (  0.0000000  1.0000000  0.0000000 )
                  (  0.0000000  0.0000000  1.0000000 )
                  (  1.0000000  0.0000000  0.0000000 )


      isym = 18     120 deg rotation - cart. axis [-1,1,1]       

 cryst.   s(18) = (     0          0         -1      )
                  (    -1          0          0      )
                  (     0          1          0      )

 cart.    s(18) = (  0.0000000 -1.0000000  0.0000000 )
                  (  0.0000000  0.0000000  1.0000000 )
                  ( -1.0000000  0.0000000  0.0000000 )


      isym = 19     120 deg rotation - cart. axis [1,1,-1]       

 cryst.   s(19) = (     0          0         -1      )
                  (     1          0          0      )
                  (     0         -1          0      )

 cart.    s(19) = (  0.0000000  1.0000000  0.0000000 )
                  (  0.0000000  0.0000000 -1.0000000 )
                  ( -1.0000000  0.0000000  0.0000000 )


      isym = 20     120 deg rotation - cart. axis [1,-1,1]       

 cryst.   s(20) = (     0          0          1      )
                  (    -1          0          0      )
                  (     0         -1          0      )

 cart.    s(20) = (  0.0000000 -1.0000000  0.0000000 )
                  (  0.0000000  0.0000000 -1.0000000 )
                  (  1.0000000  0.0000000  0.0000000 )


      isym = 21     120 deg rotation - cart. axis [1,1,1]        

 cryst.   s(21) = (     0          1          0      )
                  (     0          0          1      )
                  (     1          0          0      )

 cart.    s(21) = (  0.0000000  0.0000000  1.0000000 )
                  (  1.0000000  0.0000000  0.0000000 )
                  (  0.0000000  1.0000000  0.0000000 )


      isym = 22     120 deg rotation - cart. axis [-1,1,-1]      

 cryst.   s(22) = (     0         -1          0      )
                  (     0          0         -1      )
                  (     1          0          0      )

 cart.    s(22) = (  0.0000000  0.0000000  1.0000000 )
                  ( -1.0000000  0.0000000  0.0000000 )
                  (  0.0000000 -1.0000000  0.0000000 )


      isym = 23     120 deg rotation - cart. axis [1,-1,-1]      

 cryst.   s(23) = (     0         -1          0      )
                  (     0          0          1      )
                  (    -1          0          0      )

 cart.    s(23) = (  0.0000000  0.0000000 -1.0000000 )
                  ( -1.0000000  0.0000000  0.0000000 )
                  (  0.0000000  1.0000000  0.0000000 )


      isym = 24     120 deg rotation - cart. axis [-1,-1,1]      

 cryst.   s(24) = (     0          1          0      )
                  (     0          0         -1      )
                  (    -1          0          0      )

 cart.    s(24) = (  0.0000000  0.0000000 -1.0000000 )
                  (  1.0000000  0.0000000  0.0000000 )
                  (  0.0000000 -1.0000000  0.0000000 )


      isym = 25     inversion                                    

 cryst.   s(25) = (    -1          0          0      )
                  (     0         -1          0      )
                  (     0          0         -1      )

 cart.    s(25) = ( -1.0000000  0.0000000  0.0000000 )
                  (  0.0000000 -1.0000000  0.0000000 )
                  (  0.0000000  0.0000000 -1.0000000 )


      isym = 26     inv. 180 deg rotation - cart. axis [0,0,1]   

 cryst.   s(26) = (     1          0          0      )
                  (     0          1          0      )
                  (     0          0         -1      )

 cart.    s(26) = (  1.0000000  0.0000000  0.0000000 )
                  (  0.0000000  1.0000000  0.0000000 )
                  (  0.0000000  0.0000000 -1.0000000 )


      isym = 27     inv. 180 deg rotation - cart. axis [0,1,0]   

 cryst.   s(27) = (     1          0          0      )
                  (     0         -1          0      )
                  (     0          0          1      )

 cart.    s(27) = (  1.0000000  0.0000000  0.0000000 )
                  (  0.0000000 -1.0000000  0.0000000 )
                  (  0.0000000  0.0000000  1.0000000 )


      isym = 28     inv. 180 deg rotation - cart. axis [1,0,0]   

 cryst.   s(28) = (    -1          0          0      )
                  (     0          1          0      )
                  (     0          0          1      )

 cart.    s(28) = ( -1.0000000  0.0000000  0.0000000 )
                  (  0.0000000  1.0000000  0.0000000 )
                  (  0.0000000  0.0000000  1.0000000 )


      isym = 29     inv. 180 deg rotation - cart. axis [1,1,0]   

 cryst.   s(29) = (     0         -1          0      )
                  (    -1          0          0      )
                  (     0          0          1      )

 cart.    s(29) = (  0.0000000 -1.0000000  0.0000000 )
                  ( -1.0000000  0.0000000  0.0000000 )
                  (  0.0000000  0.0000000  1.0000000 )


      isym = 30     inv. 180 deg rotation - cart. axis [1,-1,0]  

 cryst.   s(30) = (     0          1          0      )
                  (     1          0          0      )
                  (     0          0          1      )

 cart.    s(30) = (  0.0000000  1.0000000  0.0000000 )
                  (  1.0000000  0.0000000  0.0000000 )
                  (  0.0000000  0.0000000  1.0000000 )


      isym = 31     inv.  90 deg rotation - cart. axis [0,0,-1]  

 cryst.   s(31) = (     0          1          0      )
                  (    -1          0          0      )
                  (     0          0         -1      )

 cart.    s(31) = (  0.0000000 -1.0000000  0.0000000 )
                  (  1.0000000  0.0000000  0.0000000 )
                  (  0.0000000  0.0000000 -1.0000000 )


      isym = 32     inv.  90 deg rotation - cart. axis [0,0,1]   

 cryst.   s(32) = (     0         -1          0      )
                  (     1          0          0      )
                  (     0          0         -1      )

 cart.    s(32) = (  0.0000000  1.0000000  0.0000000 )
                  ( -1.0000000  0.0000000  0.0000000 )
                  (  0.0000000  0.0000000 -1.0000000 )


      isym = 33     inv. 180 deg rotation - cart. axis [1,0,1]   

 cryst.   s(33) = (     0          0         -1      )
                  (     0          1          0      )
                  (    -1          0          0      )

 cart.    s(33) = (  0.0000000  0.0000000 -1.0000000 )
                  (  0.0000000  1.0000000  0.0000000 )
                  ( -1.0000000  0.0000000  0.0000000 )


      isym = 34     inv. 180 deg rotation - cart. axis [-1,0,1]  

 cryst.   s(34) = (     0          0          1      )
                  (     0          1          0      )
                  (     1          0          0      )

 cart.    s(34) = (  0.0000000  0.0000000  1.0000000 )
                  (  0.0000000  1.0000000  0.0000000 )
                  (  1.0000000  0.0000000  0.0000000 )


      isym = 35     inv.  90 deg rotation - cart. axis [0,1,0]   

 cryst.   s(35) = (     0          0          1      )
                  (     0         -1          0      )
                  (    -1          0          0      )

 cart.    s(35) = (  0.0000000  0.0000000 -1.0000000 )
                  (  0.0000000 -1.0000000  0.0000000 )
                  (  1.0000000  0.0000000  0.0000000 )


      isym = 36     inv.  90 deg rotation - cart. axis [0,-1,0]  

 cryst.   s(36) = (     0          0         -1      )
                  (     0         -1          0      )
                  (     1          0          0      )

 cart.    s(36) = (  0.0000000  0.0000000  1.0000000 )
                  (  0.0000000 -1.0000000  0.0000000 )
                  ( -1.0000000  0.0000000  0.0000000 )


      isym = 37     inv. 180 deg rotation - cart. axis [0,1,1]   

 cryst.   s(37) = (     1          0          0      )
                  (     0          0         -1      )
                  (     0         -1          0      )

 cart.    s(37) = (  1.0000000  0.0000000  0.0000000 )
                  (  0.0000000  0.0000000 -1.0000000 )
                  (  0.0000000 -1.0000000  0.0000000 )


      isym = 38     inv. 180 deg rotation - cart. axis [0,1,-1]  

 cryst.   s(38) = (     1          0          0      )
                  (     0          0          1      )
                  (     0          1          0      )

 cart.    s(38) = (  1.0000000  0.0000000  0.0000000 )
                  (  0.0000000  0.0000000  1.0000000 )
                  (  0.0000000  1.0000000  0.0000000 )


      isym = 39     inv.  90 deg rotation - cart. axis [-1,0,0]  

 cryst.   s(39) = (    -1          0          0      )
                  (     0          0          1      )
                  (     0         -1          0      )

 cart.    s(39) = ( -1.0000000  0.0000000  0.0000000 )
                  (  0.0000000  0.0000000 -1.0000000 )
                  (  0.0000000  1.0000000  0.0000000 )


      isym = 40     inv.  90 deg rotation - cart. axis [1,0,0]   

 cryst.   s(40) = (    -1          0          0      )
                  (     0          0         -1      )
                  (     0          1          0      )

 cart.    s(40) = ( -1.0000000  0.0000000  0.0000000 )
                  (  0.0000000  0.0000000  1.0000000 )
                  (  0.0000000 -1.0000000  0.0000000 )


      isym = 41     inv. 120 deg rotation - cart. axis [-1,-1,-1]

 cryst.   s(41) = (     0          0         -1      )
                  (    -1          0          0      )
                  (     0         -1          0      )

 cart.    s(41) = (  0.0000000 -1.0000000  0.0000000 )
                  (  0.0000000  0.0000000 -1.0000000 )
                  ( -1.0000000  0.0000000  0.0000000 )


      isym = 42     inv. 120 deg rotation - cart. axis [-1,1,1]  

 cryst.   s(42) = (     0          0          1      )
                  (     1          0          0      )
                  (     0         -1          0      )

 cart.    s(42) = (  0.0000000  1.0000000  0.0000000 )
                  (  0.0000000  0.0000000 -1.0000000 )
                  (  1.0000000  0.0000000  0.0000000 )


      isym = 43     inv. 120 deg rotation - cart. axis [1,1,-1]  

 cryst.   s(43) = (     0          0          1      )
                  (    -1          0          0      )
                  (     0          1          0      )

 cart.    s(43) = (  0.0000000 -1.0000000  0.0000000 )
                  (  0.0000000  0.0000000  1.0000000 )
                  (  1.0000000  0.0000000  0.0000000 )


      isym = 44     inv. 120 deg rotation - cart. axis [1,-1,1]  

 cryst.   s(44) = (     0          0         -1      )
                  (     1          0          0      )
                  (     0          1          0      )

 cart.    s(44) = (  0.0000000  1.0000000  0.0000000 )
                  (  0.0000000  0.0000000  1.0000000 )
                  ( -1.0000000  0.0000000  0.0000000 )


      isym = 45     inv. 120 deg rotation - cart. axis [1,1,1]   

 cryst.   s(45) = (     0         -1          0      )
                  (     0          0         -1      )
                  (    -1          0          0      )

 cart.    s(45) = (  0.0000000  0.0000000 -1.0000000 )
                  ( -1.0000000  0.0000000  0.0000000 )
                  (  0.0000000 -1.0000000  0.0000000 )


      isym = 46     inv. 120 deg rotation - cart. axis [-1,1,-1] 

 cryst.   s(46) = (     0          1          0      )
                  (     0          0          1      )
                  (    -1          0          0      )

 cart.    s(46) = (  0.0000000  0.0000000 -1.0000000 )
                  (  1.0000000  0.0000000  0.0000000 )
                  (  0.0000000  1.0000000  0.0000000 )


      isym = 47     inv. 120 deg rotation - cart. axis [1,-1,-1] 

 cryst.   s(47) = (     0          1          0      )
                  (     0          0         -1      )
                  (     1          0          0      )

 cart.    s(47) = (  0.0000000  0.0000000  1.0000000 )
                  (  1.0000000  0.0000000  0.0000000 )
                  (  0.0000000 -1.0000000  0.0000000 )


      isym = 48     inv. 120 deg rotation - cart. axis [-1,-1,1] 

 cryst.   s(48) = (     0         -1          0      )
                  (     0          0          1      )
                  (     1          0          0      )

 cart.    s(48) = (  0.0000000  0.0000000  1.0000000 )
                  ( -1.0000000  0.0000000  0.0000000 )
                  (  0.0000000  1.0000000  0.0000000 )


   Cartesian axes

     site n.     atom                  positions (alat units)
         1        Pb     tau(   1) = (   0.0000000   0.0000000   0.0000000  )
         2        Pb     tau(   2) = (   0.0000000   0.5000000   0.5000000  )
         3        Pb     tau(   3) = (   0.5000000   0.0000000   0.5000000  )
         4        Pb     tau(   4) = (   0.5000000   0.5000000   0.0000000  )

   Crystallographic axes

     site n.     atom                  positions (cryst. coord.)
         1        Pb     tau(   1) = (  0.0000000  0.0000000  0.0000000  )
         2        Pb     tau(   2) = (  0.0000000  0.5000000  0.5000000  )
         3        Pb     tau(   3) = (  0.5000000  0.0000000  0.5000000  )
         4        Pb     tau(   4) = (  0.5000000  0.5000000  0.0000000  )

     number of k points=    35  Marzari-Vanderbilt smearing, width (Ry)=  0.0200
                       cart. coord. in units 2pi/alat
        k(    1) = (   0.0000000   0.0000000   0.0000000), wk =   0.0027435
        k(    2) = (   0.0000000   0.0000000   0.1111111), wk =   0.0164609
        k(    3) = (   0.0000000   0.0000000   0.2222222), wk =   0.0164609
        k(    4) = (   0.0000000   0.0000000   0.3333333), wk =   0.0164609
        k(    5) = (   0.0000000   0.0000000   0.4444444), wk =   0.0164609
        k(    6) = (   0.0000000   0.1111111   0.1111111), wk =   0.0329218
        k(    7) = (   0.0000000   0.1111111   0.2222222), wk =   0.0658436
        k(    8) = (   0.0000000   0.1111111   0.3333333), wk =   0.0658436
        k(    9) = (   0.0000000   0.1111111   0.4444444), wk =   0.0658436
        k(   10) = (   0.0000000   0.2222222   0.2222222), wk =   0.0329218
        k(   11) = (   0.0000000   0.2222222   0.3333333), wk =   0.0658436
        k(   12) = (   0.0000000   0.2222222   0.4444444), wk =   0.0658436
        k(   13) = (   0.0000000   0.3333333   0.3333333), wk =   0.0329218
        k(   14) = (   0.0000000   0.3333333   0.4444444), wk =   0.0658436
        k(   15) = (   0.0000000   0.4444444   0.4444444), wk =   0.0329218
        k(   16) = (   0.1111111   0.1111111   0.1111111), wk =   0.0219479
        k(   17) = (   0.1111111   0.1111111   0.2222222), wk =   0.0658436
        k(   18) = (   0.1111111   0.1111111   0.3333333), wk =   0.0658436
        k(   19) = (   0.1111111   0.1111111   0.4444444), wk =   0.0658436
        k(   20) = (   0.1111111   0.2222222   0.2222222), wk =   0.0658436
        k(   21) = (   0.1111111   0.2222222   0.3333333), wk =   0.1316872
        k(   22) = (   0.1111111   0.2222222   0.4444444), wk =   0.1316872
        k(   23) = (   0.1111111   0.3333333   0.3333333), wk =   0.0658436
        k(   24) = (   0.1111111   0.3333333   0.4444444), wk =   0.1316872
        k(   25) = (   0.1111111   0.4444444   0.4444444), wk =   0.0658436
        k(   26) = (   0.2222222   0.2222222   0.2222222), wk =   0.0219479
        k(   27) = (   0.2222222   0.2222222   0.3333333), wk =   0.0658436
        k(   28) = (   0.2222222   0.2222222   0.4444444), wk =   0.0658436
        k(   29) = (   0.2222222   0.3333333   0.3333333), wk =   0.0658436
        k(   30) = (   0.2222222   0.3333333   0.4444444), wk =   0.1316872
        k(   31) = (   0.2222222   0.4444444   0.4444444), wk =   0.0658436
        k(   32) = (   0.3333333   0.3333333   0.3333333), wk =   0.0219479
        k(   33) = (   0.3333333   0.3333333   0.4444444), wk =   0.0658436
        k(   34) = (   0.3333333   0.4444444   0.4444444), wk =   0.0658436
        k(   35) = (   0.4444444   0.4444444   0.4444444), wk =   0.0219479

                       cryst. coord.
        k(    1) = (   0.0000000   0.0000000   0.0000000), wk =   0.0027435
        k(    2) = (   0.0000000   0.0000000   0.1111111), wk =   0.0164609
        k(    3) = (   0.0000000   0.0000000   0.2222222), wk =   0.0164609
        k(    4) = (   0.0000000   0.0000000   0.3333333), wk =   0.0164609
        k(    5) = (   0.0000000   0.0000000   0.4444444), wk =   0.0164609
        k(    6) = (   0.0000000   0.1111111   0.1111111), wk =   0.0329218
        k(    7) = (   0.0000000   0.1111111   0.2222222), wk =   0.0658436
        k(    8) = (   0.0000000   0.1111111   0.3333333), wk =   0.0658436
        k(    9) = (   0.0000000   0.1111111   0.4444444), wk =   0.0658436
        k(   10) = (   0.0000000   0.2222222   0.2222222), wk =   0.0329218
        k(   11) = (   0.0000000   0.2222222   0.3333333), wk =   0.0658436
        k(   12) = (   0.0000000   0.2222222   0.4444444), wk =   0.0658436
        k(   13) = (   0.0000000   0.3333333   0.3333333), wk =   0.0329218
        k(   14) = (   0.0000000   0.3333333   0.4444444), wk =   0.0658436
        k(   15) = (   0.0000000   0.4444444   0.4444444), wk =   0.0329218
        k(   16) = (   0.1111111   0.1111111   0.1111111), wk =   0.0219479
        k(   17) = (   0.1111111   0.1111111   0.2222222), wk =   0.0658436
        k(   18) = (   0.1111111   0.1111111   0.3333333), wk =   0.0658436
        k(   19) = (   0.1111111   0.1111111   0.4444444), wk =   0.0658436
        k(   20) = (   0.1111111   0.2222222   0.2222222), wk =   0.0658436
        k(   21) = (   0.1111111   0.2222222   0.3333333), wk =   0.1316872
        k(   22) = (   0.1111111   0.2222222   0.4444444), wk =   0.1316872
        k(   23) = (   0.1111111   0.3333333   0.3333333), wk =   0.0658436
        k(   24) = (   0.1111111   0.3333333   0.4444444), wk =   0.1316872
        k(   25) = (   0.1111111   0.4444444   0.4444444), wk =   0.0658436
        k(   26) = (   0.2222222   0.2222222   0.2222222), wk =   0.0219479
        k(   27) = (   0.2222222   0.2222222   0.3333333), wk =   0.0658436
        k(   28) = (   0.2222222   0.2222222   0.4444444), wk =   0.0658436
        k(   29) = (   0.2222222   0.3333333   0.3333333), wk =   0.0658436
        k(   30) = (   0.2222222   0.3333333   0.4444444), wk =   0.1316872
        k(   31) = (   0.2222222   0.4444444   0.4444444), wk =   0.0658436
        k(   32) = (   0.3333333   0.3333333   0.3333333), wk =   0.0219479
        k(   33) = (   0.3333333   0.3333333   0.4444444), wk =   0.0658436
        k(   34) = (   0.3333333   0.4444444   0.4444444), wk =   0.0658436
        k(   35) = (   0.4444444   0.4444444   0.4444444), wk =   0.0219479

     Dense  grid:    80797 G-vectors     FFT dimensions: (  54,  54,  54)

     Smooth grid:    28545 G-vectors     FFT dimensions: (  40,  40,  40)

     Dynamical RAM for                 wfc:       0.93 MB

     Dynamical RAM for     wfc (w. buffer):      33.43 MB

     Dynamical RAM for           str. fact:       0.62 MB

     Dynamical RAM for           local pot:       0.00 MB

     Dynamical RAM for          nlocal pot:       1.97 MB

     Dynamical RAM for                qrad:       1.44 MB

     Dynamical RAM for          rho,v,vnew:       3.65 MB

     Dynamical RAM for               rhoin:       1.22 MB

     Dynamical RAM for            rho*nmix:       9.86 MB

     Dynamical RAM for           G-vectors:       2.42 MB

     Dynamical RAM for          h,s,v(r/c):       0.21 MB

     Dynamical RAM for          <psi|beta>:       0.04 MB

     Dynamical RAM for                 psi:       1.86 MB

     Dynamical RAM for                hpsi:       1.86 MB

     Dynamical RAM for                spsi:       1.86 MB

     Dynamical RAM for      wfcinit/wfcrot:       1.88 MB

     Dynamical RAM for           addusdens:     117.12 MB

     Dynamical RAM for          addusforce:     121.15 MB

     Dynamical RAM for         addusstress:     123.90 MB

     Estimated static dynamical RAM per process >      48.98 MB

     Estimated max dynamical RAM per process >     182.74 MB

     Estimated total dynamical RAM >     365.49 MB

     Initial potential from superposition of free atoms

     starting charge      55.9906, renormalised to      56.0000
     Starting wfcs are   36 randomized atomic wfcs
     Checking if some PAW data can be deallocated... 

     total cpu time spent up to now is        3.5 secs

     Self-consistent Calculation
[tb_dev] Currently allocated     7.17E-01 Mbytes, locked:    0 /   6
[tb_pin] Currently allocated     0.00E+00 Mbytes, locked:    0 /   0

     iteration #  1     ecut=    40.00 Ry     beta= 0.40
     Davidson diagonalization with overlap

---- Real-time Memory Report at c_bands before calling an iterative solver
           677 MiB given to the printing process from OS
             0 MiB allocation reported by mallinfo(arena+hblkhd)
         25848 MiB available memory on the node where the printing process lives
     GPU memory used/free/total (MiB): 1035 / 10887 / 11923
------------------
     ethr =  1.00E-02,  avg # of iterations =  2.1

     Threshold (ethr) on eigenvalues was too large:
     Diagonalizing with lowered threshold

     Davidson diagonalization with overlap

---- Real-time Memory Report at c_bands before calling an iterative solver
           696 MiB given to the printing process from OS
             0 MiB allocation reported by mallinfo(arena+hblkhd)
         25805 MiB available memory on the node where the printing process lives
     GPU memory used/free/total (MiB): 1037 / 10885 / 11923
------------------
     c_bands:  1 eigenvalues not converged
     ethr =  1.09E-05,  avg # of iterations = 12.5

     total cpu time spent up to now is       21.0 secs

     total energy              =   -3482.22024395 Ry
     estimated scf accuracy    <       0.01002671 Ry
[tb_dev] Currently allocated     3.05E-05 Mbytes, locked:    0 /   2
[tb_pin] Currently allocated     0.00E+00 Mbytes, locked:    0 /   0

     iteration #  2     ecut=    40.00 Ry     beta= 0.40
     Davidson diagonalization with overlap

---- Real-time Memory Report at c_bands before calling an iterative solver
           704 MiB given to the printing process from OS
             0 MiB allocation reported by mallinfo(arena+hblkhd)
         25751 MiB available memory on the node where the printing process lives
     GPU memory used/free/total (MiB): 1037 / 10885 / 11923
------------------
     ethr =  1.79E-05,  avg # of iterations =  2.0

     total cpu time spent up to now is       25.4 secs

     total energy              =   -3482.22021199 Ry
     estimated scf accuracy    <       0.00177327 Ry
[tb_dev] Currently allocated     3.05E-05 Mbytes, locked:    0 /   2
[tb_pin] Currently allocated     0.00E+00 Mbytes, locked:    0 /   0

     iteration #  3     ecut=    40.00 Ry     beta= 0.40
     Davidson diagonalization with overlap

---- Real-time Memory Report at c_bands before calling an iterative solver
           706 MiB given to the printing process from OS
             0 MiB allocation reported by mallinfo(arena+hblkhd)
         25741 MiB available memory on the node where the printing process lives
     GPU memory used/free/total (MiB): 1037 / 10885 / 11923
------------------
     ethr =  3.17E-06,  avg # of iterations =  5.5

     total cpu time spent up to now is       32.9 secs

     total energy              =   -3482.22138828 Ry
     estimated scf accuracy    <       0.00115102 Ry
[tb_dev] Currently allocated     3.05E-05 Mbytes, locked:    0 /   2
[tb_pin] Currently allocated     0.00E+00 Mbytes, locked:    0 /   0

     iteration #  4     ecut=    40.00 Ry     beta= 0.40
     Davidson diagonalization with overlap

---- Real-time Memory Report at c_bands before calling an iterative solver
           708 MiB given to the printing process from OS
             0 MiB allocation reported by mallinfo(arena+hblkhd)
         25728 MiB available memory on the node where the printing process lives
     GPU memory used/free/total (MiB): 1037 / 10885 / 11923
------------------
     ethr =  2.06E-06,  avg # of iterations =  1.9

     total cpu time spent up to now is       37.2 secs

     total energy              =   -3482.22135763 Ry
     estimated scf accuracy    <       0.00154345 Ry
[tb_dev] Currently allocated     3.05E-05 Mbytes, locked:    0 /   2
[tb_pin] Currently allocated     0.00E+00 Mbytes, locked:    0 /   0

     iteration #  5     ecut=    40.00 Ry     beta= 0.40
     Davidson diagonalization with overlap

---- Real-time Memory Report at c_bands before calling an iterative solver
           709 MiB given to the printing process from OS
             0 MiB allocation reported by mallinfo(arena+hblkhd)
         25727 MiB available memory on the node where the printing process lives
     GPU memory used/free/total (MiB): 1037 / 10885 / 11923
------------------
     ethr =  2.06E-06,  avg # of iterations =  1.0

     total cpu time spent up to now is       40.8 secs

     total energy              =   -3482.22127917 Ry
     estimated scf accuracy    <       0.00075854 Ry
[tb_dev] Currently allocated     3.05E-05 Mbytes, locked:    0 /   2
[tb_pin] Currently allocated     0.00E+00 Mbytes, locked:    0 /   0

     iteration #  6     ecut=    40.00 Ry     beta= 0.40
     Davidson diagonalization with overlap

---- Real-time Memory Report at c_bands before calling an iterative solver
           711 MiB given to the printing process from OS
             0 MiB allocation reported by mallinfo(arena+hblkhd)
         25725 MiB available memory on the node where the printing process lives
     GPU memory used/free/total (MiB): 1037 / 10885 / 11923
------------------
     ethr =  1.35E-06,  avg # of iterations =  2.0

     total cpu time spent up to now is       45.2 secs

     total energy              =   -3482.22131145 Ry
     estimated scf accuracy    <       0.00011966 Ry
[tb_dev] Currently allocated     3.05E-05 Mbytes, locked:    0 /   2
[tb_pin] Currently allocated     0.00E+00 Mbytes, locked:    0 /   0

     iteration #  7     ecut=    40.00 Ry     beta= 0.40
     Davidson diagonalization with overlap

---- Real-time Memory Report at c_bands before calling an iterative solver
           711 MiB given to the printing process from OS
             0 MiB allocation reported by mallinfo(arena+hblkhd)
         25724 MiB available memory on the node where the printing process lives
     GPU memory used/free/total (MiB): 1037 / 10885 / 11923
------------------
     ethr =  2.14E-07,  avg # of iterations =  3.5

     total cpu time spent up to now is       50.5 secs

     total energy              =   -3482.22132644 Ry
     estimated scf accuracy    <       0.00004016 Ry
[tb_dev] Currently allocated     3.05E-05 Mbytes, locked:    0 /   2
[tb_pin] Currently allocated     0.00E+00 Mbytes, locked:    0 /   0

     iteration #  8     ecut=    40.00 Ry     beta= 0.40
     Davidson diagonalization with overlap

---- Real-time Memory Report at c_bands before calling an iterative solver
           713 MiB given to the printing process from OS
             0 MiB allocation reported by mallinfo(arena+hblkhd)
         25721 MiB available memory on the node where the printing process lives
     GPU memory used/free/total (MiB): 1037 / 10885 / 11923
------------------
     ethr =  7.17E-08,  avg # of iterations =  4.1

     total cpu time spent up to now is       56.4 secs

     total energy              =   -3482.22133348 Ry
     estimated scf accuracy    <       0.00002641 Ry
[tb_dev] Currently allocated     3.05E-05 Mbytes, locked:    0 /   2
[tb_pin] Currently allocated     0.00E+00 Mbytes, locked:    0 /   0

     iteration #  9     ecut=    40.00 Ry     beta= 0.40
     Davidson diagonalization with overlap

---- Real-time Memory Report at c_bands before calling an iterative solver
           714 MiB given to the printing process from OS
             0 MiB allocation reported by mallinfo(arena+hblkhd)
         25721 MiB available memory on the node where the printing process lives
     GPU memory used/free/total (MiB): 1037 / 10885 / 11923
------------------
     ethr =  4.72E-08,  avg # of iterations =  2.0

     total cpu time spent up to now is       60.8 secs

     total energy              =   -3482.22133343 Ry
     estimated scf accuracy    <       0.00002971 Ry
[tb_dev] Currently allocated     3.05E-05 Mbytes, locked:    0 /   2
[tb_pin] Currently allocated     0.00E+00 Mbytes, locked:    0 /   0

     iteration # 10     ecut=    40.00 Ry     beta= 0.40
     Davidson diagonalization with overlap

---- Real-time Memory Report at c_bands before calling an iterative solver
           715 MiB given to the printing process from OS
             0 MiB allocation reported by mallinfo(arena+hblkhd)
         25718 MiB available memory on the node where the printing process lives
     GPU memory used/free/total (MiB): 1037 / 10885 / 11923
------------------
     ethr =  4.72E-08,  avg # of iterations =  2.0

     total cpu time spent up to now is       65.1 secs

     total energy              =   -3482.22133540 Ry
     estimated scf accuracy    <       0.00000346 Ry
[tb_dev] Currently allocated     3.05E-05 Mbytes, locked:    0 /   2
[tb_pin] Currently allocated     0.00E+00 Mbytes, locked:    0 /   0

     iteration # 11     ecut=    40.00 Ry     beta= 0.40
     Davidson diagonalization with overlap

---- Real-time Memory Report at c_bands before calling an iterative solver
           715 MiB given to the printing process from OS
             0 MiB allocation reported by mallinfo(arena+hblkhd)
         25722 MiB available memory on the node where the printing process lives
     GPU memory used/free/total (MiB): 1037 / 10885 / 11923
------------------
     ethr =  6.18E-09,  avg # of iterations =  5.3

     total cpu time spent up to now is       72.4 secs

     total energy              =   -3482.22133871 Ry
     estimated scf accuracy    <       0.00000155 Ry
[tb_dev] Currently allocated     3.05E-05 Mbytes, locked:    0 /   2
[tb_pin] Currently allocated     0.00E+00 Mbytes, locked:    0 /   0

     iteration # 12     ecut=    40.00 Ry     beta= 0.40
     Davidson diagonalization with overlap

---- Real-time Memory Report at c_bands before calling an iterative solver
           715 MiB given to the printing process from OS
             0 MiB allocation reported by mallinfo(arena+hblkhd)
         25716 MiB available memory on the node where the printing process lives
     GPU memory used/free/total (MiB): 1037 / 10885 / 11923
------------------
     ethr =  2.76E-09,  avg # of iterations =  5.3

     total cpu time spent up to now is       79.7 secs

     total energy              =   -3482.22133852 Ry
     estimated scf accuracy    <       0.00001342 Ry
[tb_dev] Currently allocated     3.05E-05 Mbytes, locked:    0 /   2
[tb_pin] Currently allocated     0.00E+00 Mbytes, locked:    0 /   0

     iteration # 13     ecut=    40.00 Ry     beta= 0.40
     Davidson diagonalization with overlap

---- Real-time Memory Report at c_bands before calling an iterative solver
           715 MiB given to the printing process from OS
             0 MiB allocation reported by mallinfo(arena+hblkhd)
         25715 MiB available memory on the node where the printing process lives
     GPU memory used/free/total (MiB): 1037 / 10885 / 11923
------------------
     ethr =  2.76E-09,  avg # of iterations =  2.2

     total cpu time spent up to now is       84.2 secs

     total energy              =   -3482.22134391 Ry
     estimated scf accuracy    <       0.00000933 Ry
[tb_dev] Currently allocated     3.05E-05 Mbytes, locked:    0 /   2
[tb_pin] Currently allocated     0.00E+00 Mbytes, locked:    0 /   0

     iteration # 14     ecut=    40.00 Ry     beta= 0.40
     Davidson diagonalization with overlap

---- Real-time Memory Report at c_bands before calling an iterative solver
           715 MiB given to the printing process from OS
             0 MiB allocation reported by mallinfo(arena+hblkhd)
         25715 MiB available memory on the node where the printing process lives
     GPU memory used/free/total (MiB): 1037 / 10885 / 11923
------------------
     ethr =  2.76E-09,  avg # of iterations =  8.9

     total cpu time spent up to now is       96.0 secs

     total energy              =   -3482.22133082 Ry
     estimated scf accuracy    <       0.00008751 Ry
[tb_dev] Currently allocated     3.05E-05 Mbytes, locked:    0 /   2
[tb_pin] Currently allocated     0.00E+00 Mbytes, locked:    0 /   0

     iteration # 15     ecut=    40.00 Ry     beta= 0.40
     Davidson diagonalization with overlap

---- Real-time Memory Report at c_bands before calling an iterative solver
           715 MiB given to the printing process from OS
             0 MiB allocation reported by mallinfo(arena+hblkhd)
         25714 MiB available memory on the node where the printing process lives
     GPU memory used/free/total (MiB): 1037 / 10885 / 11923
------------------
     ethr =  2.76E-09,  avg # of iterations =  9.2

     total cpu time spent up to now is      107.9 secs

     total energy              =   -3482.22133721 Ry
     estimated scf accuracy    <       0.00000416 Ry
[tb_dev] Currently allocated     3.05E-05 Mbytes, locked:    0 /   2
[tb_pin] Currently allocated     0.00E+00 Mbytes, locked:    0 /   0

     iteration # 16     ecut=    40.00 Ry     beta= 0.40
     Davidson diagonalization with overlap

---- Real-time Memory Report at c_bands before calling an iterative solver
           715 MiB given to the printing process from OS
             0 MiB allocation reported by mallinfo(arena+hblkhd)
         25712 MiB available memory on the node where the printing process lives
     GPU memory used/free/total (MiB): 1037 / 10885 / 11923
------------------
     ethr =  2.76E-09,  avg # of iterations =  2.4

     total cpu time spent up to now is      112.6 secs

     total energy              =   -3482.22133727 Ry
     estimated scf accuracy    <       0.00000085 Ry
[tb_dev] Currently allocated     3.05E-05 Mbytes, locked:    0 /   2
[tb_pin] Currently allocated     0.00E+00 Mbytes, locked:    0 /   0

     iteration # 17     ecut=    40.00 Ry     beta= 0.40
     Davidson diagonalization with overlap

---- Real-time Memory Report at c_bands before calling an iterative solver
           715 MiB given to the printing process from OS
             0 MiB allocation reported by mallinfo(arena+hblkhd)
         25712 MiB available memory on the node where the printing process lives
     GPU memory used/free/total (MiB): 1037 / 10885 / 11923
------------------
     ethr =  1.52E-09,  avg # of iterations =  1.6

     total cpu time spent up to now is      116.8 secs

     total energy              =   -3482.22133742 Ry
     estimated scf accuracy    <       0.00000019 Ry
[tb_dev] Currently allocated     3.05E-05 Mbytes, locked:    0 /   2
[tb_pin] Currently allocated     0.00E+00 Mbytes, locked:    0 /   0

     iteration # 18     ecut=    40.00 Ry     beta= 0.40
     Davidson diagonalization with overlap

---- Real-time Memory Report at c_bands before calling an iterative solver
           715 MiB given to the printing process from OS
             0 MiB allocation reported by mallinfo(arena+hblkhd)
         25711 MiB available memory on the node where the printing process lives
     GPU memory used/free/total (MiB): 1037 / 10885 / 11923
------------------
     ethr =  3.45E-10,  avg # of iterations =  6.6

     total cpu time spent up to now is      125.8 secs

     total energy              =   -3482.22133738 Ry
     estimated scf accuracy    <       0.00000230 Ry
[tb_dev] Currently allocated     3.05E-05 Mbytes, locked:    0 /   2
[tb_pin] Currently allocated     0.00E+00 Mbytes, locked:    0 /   0

     iteration # 19     ecut=    40.00 Ry     beta= 0.40
     Davidson diagonalization with overlap

---- Real-time Memory Report at c_bands before calling an iterative solver
           715 MiB given to the printing process from OS
             0 MiB allocation reported by mallinfo(arena+hblkhd)
         25709 MiB available memory on the node where the printing process lives
     GPU memory used/free/total (MiB): 1037 / 10885 / 11923
------------------
     ethr =  3.45E-10,  avg # of iterations =  2.8

     total cpu time spent up to now is      130.7 secs

     total energy              =   -3482.22133731 Ry
     estimated scf accuracy    <       0.00000086 Ry
[tb_dev] Currently allocated     3.05E-05 Mbytes, locked:    0 /   2
[tb_pin] Currently allocated     0.00E+00 Mbytes, locked:    0 /   0

     iteration # 20     ecut=    40.00 Ry     beta= 0.40
     Davidson diagonalization with overlap

---- Real-time Memory Report at c_bands before calling an iterative solver
           715 MiB given to the printing process from OS
             0 MiB allocation reported by mallinfo(arena+hblkhd)
         25707 MiB available memory on the node where the printing process lives
     GPU memory used/free/total (MiB): 1037 / 10885 / 11923
------------------
     ethr =  3.45E-10,  avg # of iterations =  3.6

     total cpu time spent up to now is      136.6 secs

     total energy              =   -3482.22133733 Ry
     estimated scf accuracy    <       0.00000027 Ry
[tb_dev] Currently allocated     3.05E-05 Mbytes, locked:    0 /   2
[tb_pin] Currently allocated     0.00E+00 Mbytes, locked:    0 /   0

     iteration # 21     ecut=    40.00 Ry     beta= 0.40
     Davidson diagonalization with overlap

---- Real-time Memory Report at c_bands before calling an iterative solver
           715 MiB given to the printing process from OS
             0 MiB allocation reported by mallinfo(arena+hblkhd)
         25706 MiB available memory on the node where the printing process lives
     GPU memory used/free/total (MiB): 1037 / 10885 / 11923
------------------
     ethr =  3.45E-10,  avg # of iterations =  2.0

     total cpu time spent up to now is      141.0 secs

     total energy              =   -3482.22133734 Ry
     estimated scf accuracy    <       0.00000008 Ry
[tb_dev] Currently allocated     3.05E-05 Mbytes, locked:    0 /   2
[tb_pin] Currently allocated     0.00E+00 Mbytes, locked:    0 /   0

     iteration # 22     ecut=    40.00 Ry     beta= 0.40
     Davidson diagonalization with overlap

---- Real-time Memory Report at c_bands before calling an iterative solver
           715 MiB given to the printing process from OS
             0 MiB allocation reported by mallinfo(arena+hblkhd)
         25705 MiB available memory on the node where the printing process lives
     GPU memory used/free/total (MiB): 1037 / 10885 / 11923
------------------
     ethr =  1.43E-10,  avg # of iterations =  3.8

     total cpu time spent up to now is      147.2 secs

     total energy              =   -3482.22133736 Ry
     estimated scf accuracy    <       0.00000003 Ry
[tb_dev] Currently allocated     3.05E-05 Mbytes, locked:    0 /   2
[tb_pin] Currently allocated     0.00E+00 Mbytes, locked:    0 /   0

     iteration # 23     ecut=    40.00 Ry     beta= 0.40
     Davidson diagonalization with overlap

---- Real-time Memory Report at c_bands before calling an iterative solver
           715 MiB given to the printing process from OS
             0 MiB allocation reported by mallinfo(arena+hblkhd)
         25704 MiB available memory on the node where the printing process lives
     GPU memory used/free/total (MiB): 1037 / 10885 / 11923
------------------
     ethr =  5.62E-11,  avg # of iterations =  3.5

     total cpu time spent up to now is      152.6 secs

     total energy              =   -3482.22133735 Ry
     estimated scf accuracy    <       0.00000002 Ry
[tb_dev] Currently allocated     3.05E-05 Mbytes, locked:    0 /   2
[tb_pin] Currently allocated     0.00E+00 Mbytes, locked:    0 /   0

     iteration # 24     ecut=    40.00 Ry     beta= 0.40
     Davidson diagonalization with overlap

---- Real-time Memory Report at c_bands before calling an iterative solver
           715 MiB given to the printing process from OS
             0 MiB allocation reported by mallinfo(arena+hblkhd)
         25703 MiB available memory on the node where the printing process lives
     GPU memory used/free/total (MiB): 1037 / 10885 / 11923
------------------
     ethr =  2.93E-11,  avg # of iterations =  2.0

     total cpu time spent up to now is      157.1 secs

     total energy              =   -3482.22133735 Ry
     estimated scf accuracy    <          1.8E-09 Ry
[tb_dev] Currently allocated     3.05E-05 Mbytes, locked:    0 /   2
[tb_pin] Currently allocated     0.00E+00 Mbytes, locked:    0 /   0

     iteration # 25     ecut=    40.00 Ry     beta= 0.40
     Davidson diagonalization with overlap

---- Real-time Memory Report at c_bands before calling an iterative solver
           715 MiB given to the printing process from OS
             0 MiB allocation reported by mallinfo(arena+hblkhd)
         25703 MiB available memory on the node where the printing process lives
     GPU memory used/free/total (MiB): 1037 / 10885 / 11923
------------------
     ethr =  3.15E-12,  avg # of iterations =  5.6

     total cpu time spent up to now is      164.9 secs

     End of self-consistent calculation

          k = 0.0000 0.0000 0.0000 (  3695 PWs)   bands (ev):

    -6.2987  -6.2987  -6.2987  -6.2149  -6.2149  -6.2149  -6.1479  -6.1479
    -6.1479  -6.0179  -6.0179  -5.9032  -5.9032  -5.9032  -5.8606  -5.8606
    -5.8606  -5.8606  -5.8606  -5.8606  -0.6902   4.1495   4.1495   4.1495
     7.7304   7.7304   7.7304  12.9542  12.9542  12.9542  12.9542  12.9542
    12.9542  16.2247

     occupation numbers 
     1.0000   1.0000   1.0000   1.0000   1.0000   1.0000   1.0000   1.0000
     1.0000   1.0000   1.0000   1.0000   1.0000   1.0000   1.0000   1.0000
     1.0000   1.0000   1.0000   1.0000   1.0000   1.0000   1.0000   1.0000
     1.0000   1.0000   1.0000   0.0000   0.0000   0.0000   0.0000   0.0000
     0.0000   0.0000

          k = 0.0000 0.0000 0.1111 (  3611 PWs)   bands (ev):

    -6.2940  -6.2864  -6.2864  -6.2077  -6.2073  -6.2073  -6.1525  -6.1398
    -6.1398  -6.0229  -6.0144  -5.9093  -5.9092  -5.9065  -5.8748  -5.8748
    -5.8694  -5.8694  -5.8604  -5.8604  -0.6131   3.7413   4.1609   4.1609
     7.8274   7.8274   8.2521  12.5895  12.5895  12.6251  12.6251  13.0507
    13.0507  16.3276

     occupation numbers 
     1.0000   1.0000   1.0000   1.0000   1.0000   1.0000   1.0000   1.0000
     1.0000   1.0000   1.0000   1.0000   1.0000   1.0000   1.0000   1.0000
     1.0000   1.0000   1.0000   1.0000   1.0000   1.0000   1.0000   1.0000
     1.0000   1.0000   1.0000   0.0000   0.0000   0.0000   0.0000   0.0000
     0.0000   0.0000

          k = 0.0000 0.0000 0.2222 (  3611 PWs)   bands (ev):

    -6.2809  -6.2515  -6.2515  -6.1881  -6.1871  -6.1871  -6.1656  -6.1160
    -6.1160  -6.0370  -6.0047  -5.9269  -5.9269  -5.9165  -5.9164  -5.9164
    -5.8957  -5.8957  -5.8604  -5.8604  -0.3816   2.9056   4.1905   4.1905
     8.1150   8.1150   9.4200  11.7789  11.7789  12.0191  12.0191  13.3372
    13.3372  16.4535

     occupation numbers 
     1.0000   1.0000   1.0000   1.0000   1.0000   1.0000   1.0000   1.0000
     1.0000   1.0000   1.0000   1.0000   1.0000   1.0000   1.0000   1.0000
     1.0000   1.0000   1.0000   1.0000   1.0000   1.0000   1.0000   1.0000
     1.0000   1.0000   1.0000   0.0000   0.0000   0.0000   0.0000   0.0000
     0.0000   0.0000

          k = 0.0000 0.0000 0.3333 (  3567 PWs)   bands (ev):

    -6.2608  -6.1969  -6.1969  -6.1856  -6.1598  -6.1598  -6.1587  -6.0792
    -6.0792  -6.0599  -5.9895  -5.9784  -5.9784  -5.9508  -5.9507  -5.9353
    -5.9353  -5.9318  -5.8603  -5.8602   0.0036   2.0220   4.2253   4.2253
     8.5827   8.5827  10.8289  10.8614  10.8614  11.5100  11.5100  13.8046
    13.8046  15.1531

     occupation numbers 
     1.0000   1.0000   1.0000   1.0000   1.0000   1.0000   1.0000   1.0000
     1.0000   1.0000   1.0000   1.0000   1.0000   1.0000   1.0000   1.0000
     1.0000   1.0000   1.0000   1.0000   1.0000   1.0000   1.0000   1.0000
     1.0000   1.0000   0.5605   0.4719   0.4719   0.0001   0.0001   0.0000
     0.0000   0.0000

          k = 0.0000 0.0000 0.4444 (  3551 PWs)   bands (ev):

    -6.2364  -6.2103  -6.1379  -6.1379  -6.1279  -6.1279  -6.1245  -6.0899
    -6.0520  -6.0520  -6.0333  -6.0333  -5.9833  -5.9833  -5.9708  -5.9705
    -5.9705  -5.9507  -5.8602  -5.8602   0.5396   1.2185   4.2488   4.2488
     9.2139   9.2139   9.9852   9.9852  11.2321  11.2321  12.3083  13.7657
    14.4378  14.4378

     occupation numbers 
     1.0000   1.0000   1.0000   1.0000   1.0000   1.0000   1.0000   1.0000
     1.0000   1.0000   1.0000   1.0000   1.0000   1.0000   1.0000   1.0000
     1.0000   1.0000   1.0000   1.0000   1.0000   1.0000   1.0000   1.0000
     1.0000   1.0000   1.0003   1.0003   0.0110   0.0110   0.0000   0.0000
     0.0000   0.0000

          k = 0.0000 0.1111 0.1111 (  3595 PWs)   bands (ev):

    -6.2820  -6.2820  -6.2767  -6.2005  -6.2005  -6.1985  -6.1497  -6.1386
    -6.1334  -6.0233  -6.0143  -5.9158  -5.9158  -5.9153  -5.8811  -5.8801
    -5.8801  -5.8695  -5.8695  -5.8683  -0.5359   3.7704   3.7704   4.1663
     7.9242   8.3151   8.3151  11.7363  12.6836  12.6836  12.7451  12.7451
    13.1358  16.6550

     occupation numbers 
     1.0000   1.0000   1.0000   1.0000   1.0000   1.0000   1.0000   1.0000
     1.0000   1.0000   1.0000   1.0000   1.0000   1.0000   1.0000   1.0000
     1.0000   1.0000   1.0000   1.0000   1.0000   1.0000   1.0000   1.0000
     1.0000   1.0000   1.0000   0.0000   0.0000   0.0000   0.0000   0.0000
     0.0000   0.0000

          k = 0.0000 0.1111 0.2222 (  3598 PWs)   bands (ev):

    -6.2697  -6.2484  -6.2477  -6.1817  -6.1810  -6.1736  -6.1598  -6.1173
    -6.1152  -6.0343  -6.0039  -5.9453  -5.9356  -5.9322  -5.9189  -5.9070
    -5.8960  -5.8943  -5.8710  -5.8697  -0.3045   2.9568   3.8498   4.1761
     8.2108   8.4975   9.4045  10.8783  11.8704  12.2006  12.9575  12.9630
    13.1113  15.4931

     occupation numbers 
     1.0000   1.0000   1.0000   1.0000   1.0000   1.0000   1.0000   1.0000
     1.0000   1.0000   1.0000   1.0000   1.0000   1.0000   1.0000   1.0000
     1.0000   1.0000   1.0000   1.0000   1.0000   1.0000   1.0000   1.0000
     1.0000   1.0000   1.0000   0.4276   0.0000   0.0000   0.0000   0.0000
     0.0000   0.0000

          k = 0.0000 0.1111 0.3333 (  3584 PWs)   bands (ev):

    -6.2506  -6.2052  -6.1940  -6.1787  -6.1556  -6.1535  -6.1382  -6.0892
    -6.0806  -6.0522  -5.9939  -5.9856  -5.9794  -5.9665  -5.9553  -5.9402
    -5.9360  -5.9145  -5.8711  -5.8700   0.0802   2.0864   3.9578   4.1738
     8.6772   8.7802  10.1550  10.6831  10.9523  11.8022  12.4189  13.4189
    13.7405  14.3264

     occupation numbers 
     1.0000   1.0000   1.0000   1.0000   1.0000   1.0000   1.0000   1.0000
     1.0000   1.0000   1.0000   1.0000   1.0000   1.0000   1.0000   1.0000
     1.0000   1.0000   1.0000   1.0000   1.0000   1.0000   1.0000   1.0000
     1.0000   1.0000   1.0052   0.9257   0.2567   0.0000   0.0000   0.0000
     0.0000   0.0000

          k = 0.0000 0.1111 0.4444 (  3570 PWs)   bands (ev):

    -6.2271  -6.2021  -6.1585  -6.1392  -6.1263  -6.1212  -6.0990  -6.0906
    -6.0518  -6.0511  -6.0420  -6.0343  -6.0043  -5.9842  -5.9733  -5.9679
    -5.9628  -5.9382  -5.8708  -5.8704   0.6147   1.2900   4.0637   4.1394
     9.1421   9.3068   9.5871  10.0767  11.7030  11.9347  11.9586  13.1635
    14.0367  14.6367

     occupation numbers 
     1.0000   1.0000   1.0000   1.0000   1.0000   1.0000   1.0000   1.0000
     1.0000   1.0000   1.0000   1.0000   1.0000   1.0000   1.0000   1.0000
     1.0000   1.0000   1.0000   1.0000   1.0000   1.0000   1.0000   1.0000
     1.0000   1.0000   1.0000   1.0016   0.0000   0.0000   0.0000   0.0000
     0.0000   0.0000

          k = 0.0000 0.2222 0.2222 (  3595 PWs)   bands (ev):

    -6.2369  -6.2369  -6.2350  -6.1644  -6.1644  -6.1520  -6.1398  -6.1118
    -6.1112  -6.0348  -5.9949  -5.9745  -5.9745  -5.9475  -5.9363  -5.9045
    -5.9044  -5.8968  -5.8968  -5.8913  -0.0735   3.1034   3.1034   4.1234
     8.4948   9.3446   9.3446  10.0538  12.1422  12.1422  12.7639  12.7639
    13.6675  14.3209

     occupation numbers 
     1.0000   1.0000   1.0000   1.0000   1.0000   1.0000   1.0000   1.0000
     1.0000   1.0000   1.0000   1.0000   1.0000   1.0000   1.0000   1.0000
     1.0000   1.0000   1.0000   1.0000   1.0000   1.0000   1.0000   1.0000
     1.0000   1.0000   1.0000   1.0011   0.0000   0.0000   0.0000   0.0000
     0.0000   0.0000

          k = 0.0000 0.2222 0.3333 (  3590 PWs)   bands (ev):

    -6.2204  -6.2086  -6.1859  -6.1609  -6.1441  -6.1404  -6.1029  -6.0969
    -6.0820  -6.0447  -6.0185  -6.0064  -5.9852  -5.9747  -5.9685  -5.9375
    -5.9294  -5.9121  -5.8990  -5.8979   0.3091   2.2747   3.3234   4.0103
     8.9573   9.2359   9.4844  10.2950  11.2222  12.5861  12.6421  13.2151
    13.6305  13.7249

     occupation numbers 
     1.0000   1.0000   1.0000   1.0000   1.0000   1.0000   1.0000   1.0000
     1.0000   1.0000   1.0000   1.0000   1.0000   1.0000   1.0000   1.0000
     1.0000   1.0000   1.0000   1.0000   1.0000   1.0000   1.0000   1.0000
     1.0000   1.0000   1.0000   1.0268   0.0127   0.0000   0.0000   0.0000
     0.0000   0.0000

          k = 0.0000 0.2222 0.4444 (  3578 PWs)   bands (ev):

    -6.2002  -6.1793  -6.1724  -6.1422  -6.1217  -6.1148  -6.0986  -6.0609
    -6.0516  -6.0512  -6.0472  -6.0369  -6.0353  -5.9864  -5.9812  -5.9621
    -5.9506  -5.9284  -5.8998  -5.8991   0.8380   1.5013   3.5797   3.8234
     9.1456   9.1947   9.5826  10.3487  11.2355  12.1934  12.8167  13.1890
    13.2072  13.9324

     occupation numbers 
     1.0000   1.0000   1.0000   1.0000   1.0000   1.0000   1.0000   1.0000
     1.0000   1.0000   1.0000   1.0000   1.0000   1.0000   1.0000   1.0000
     1.0000   1.0000   1.0000   1.0000   1.0000   1.0000   1.0000   1.0000
     1.0000   1.0000   1.0000   1.0425   0.0104   0.0000   0.0000   0.0000
     0.0000   0.0000

          k = 0.0000 0.3333 0.3333 (  3596 PWs)   bands (ev):

    -6.1976  -6.1737  -6.1737  -6.1454  -6.1302  -6.1302  -6.1121  -6.0716
    -6.0508  -6.0440  -6.0394  -6.0394  -6.0071  -5.9875  -5.9595  -5.9395
    -5.9395  -5.9275  -5.9265  -5.9265   0.6861   2.5710   2.5710   3.7275
     9.1391   9.4141   9.8066   9.8066  11.6636  11.6636  12.1814  13.8631
    13.9024  13.9024

     occupation numbers 
     1.0000   1.0000   1.0000   1.0000   1.0000   1.0000   1.0000   1.0000
     1.0000   1.0000   1.0000   1.0000   1.0000   1.0000   1.0000   1.0000
     1.0000   1.0000   1.0000   1.0000   1.0000   1.0000   1.0000   1.0000
     1.0000   1.0000   1.0000   1.0000   0.0000   0.0000   0.0000   0.0000
     0.0000   0.0000

          k = 0.0000 0.3333 0.4444 (  3563 PWs)   bands (ev):

    -6.1738  -6.1595  -6.1474  -6.1444  -6.1200  -6.1163  -6.1158  -6.0554
    -6.0493  -6.0478  -6.0416  -6.0367  -6.0254  -5.9905  -5.9885  -5.9554
    -5.9440  -5.9409  -5.9392  -5.9319   1.2027   1.8419   2.9460   3.3526
     9.1227   9.3756  10.0330  10.4775  10.7933  11.2663  12.2639  13.0057
    14.2367  14.5785

     occupation numbers 
     1.0000   1.0000   1.0000   1.0000   1.0000   1.0000   1.0000   1.0000
     1.0000   1.0000   1.0000   1.0000   1.0000   1.0000   1.0000   1.0000
     1.0000   1.0000   1.0000   1.0000   1.0000   1.0000   1.0000   1.0000
     1.0000   1.0000   1.0008   1.0812   0.6591   0.0065   0.0000   0.0000
     0.0000   0.0000

          k = 0.0000 0.4444 0.4444 (  3578 PWs)   bands (ev):

    -6.1629  -6.1421  -6.1421  -6.1326  -6.1208  -6.1125  -6.1125  -6.0732
    -6.0413  -6.0387  -6.0387  -6.0231  -6.0220  -5.9872  -5.9872  -5.9757
    -5.9731  -5.9490  -5.9490  -5.9443   1.6953   2.2912   2.2912   2.8141
     9.3533   9.8254   9.8254  10.4649  10.6445  11.3977  11.3977  12.1441
    15.5881  15.7167

     occupation numbers 
     1.0000   1.0000   1.0000   1.0000   1.0000   1.0000   1.0000   1.0000
     1.0000   1.0000   1.0000   1.0000   1.0000   1.0000   1.0000   1.0000
     1.0000   1.0000   1.0000   1.0000   1.0000   1.0000   1.0000   1.0000
     1.0000   1.0000   1.0000   1.0790   0.9912   0.0007   0.0007   0.0000
     0.0000   0.0000

          k = 0.1111 0.1111 0.1111 (  3614 PWs)   bands (ev):

    -6.2725  -6.2725  -6.2725  -6.1920  -6.1920  -6.1920  -6.1482  -6.1327
    -6.1327  -6.0183  -6.0183  -5.9232  -5.9232  -5.9232  -5.8897  -5.8897
    -5.8897  -5.8723  -5.8723  -5.8723  -0.4587   3.7946   3.7946   3.7946
     8.3693   8.3693   8.3693  11.8796  11.8796  11.8796  13.2301  13.2301
    13.2301  15.8269

     occupation numbers 
     1.0000   1.0000   1.0000   1.0000   1.0000   1.0000   1.0000   1.0000
     1.0000   1.0000   1.0000   1.0000   1.0000   1.0000   1.0000   1.0000
     1.0000   1.0000   1.0000   1.0000   1.0000   1.0000   1.0000   1.0000
     1.0000   1.0000   1.0000   0.0000   0.0000   0.0000   0.0000   0.0000
     0.0000   0.0000

          k = 0.1111 0.1111 0.2222 (  3597 PWs)   bands (ev):

    -6.2604  -6.2446  -6.2446  -6.1741  -6.1684  -6.1684  -6.1560  -6.1179
    -6.1151  -6.0289  -6.0038  -5.9485  -5.9485  -5.9452  -5.9160  -5.9160
    -5.9136  -5.8843  -5.8754  -5.8754  -0.2274   3.0053   3.8577   3.8577
     8.5168   8.5168   9.3521  11.0978  11.0978  12.3264  13.0623  13.0623
    13.5102  14.6858

     occupation numbers 
     1.0000   1.0000   1.0000   1.0000   1.0000   1.0000   1.0000   1.0000
     1.0000   1.0000   1.0000   1.0000   1.0000   1.0000   1.0000   1.0000
     1.0000   1.0000   1.0000   1.0000   1.0000   1.0000   1.0000   1.0000
     1.0000   1.0000   1.0000   0.0639   0.0639   0.0000   0.0000   0.0000
     0.0000   0.0000

          k = 0.1111 0.1111 0.3333 (  3578 PWs)   bands (ev):

    -6.2420  -6.2018  -6.2018  -6.1735  -6.1476  -6.1357  -6.1356  -6.0937
    -6.0878  -6.0420  -5.9942  -5.9942  -5.9821  -5.9772  -5.9493  -5.9478
    -5.9478  -5.9036  -5.8771  -5.8771   0.1568   2.1495   3.9332   3.9332
     8.7054   8.7054  10.4556  10.5285  10.5285  12.5679  12.5679  13.1123
    13.5786  13.9674

     occupation numbers 
     1.0000   1.0000   1.0000   1.0000   1.0000   1.0000   1.0000   1.0000
     1.0000   1.0000   1.0000   1.0000   1.0000   1.0000   1.0000   1.0000
     1.0000   1.0000   1.0000   1.0000   1.0000   1.0000   1.0000   1.0000
     1.0000   1.0000   1.0769   1.0812   1.0812   0.0000   0.0000   0.0000
     0.0000   0.0000

          k = 0.1111 0.1111 0.4444 (  3580 PWs)   bands (ev):

    -6.2196  -6.1958  -6.1561  -6.1561  -6.1177  -6.1065  -6.1065  -6.0920
    -6.0531  -6.0449  -6.0449  -6.0302  -6.0148  -5.9911  -5.9737  -5.9737
    -5.9559  -5.9285  -5.8779  -5.8779   0.6895   1.3609   3.9849   3.9849
     8.8402   8.8402  10.2451  10.2451  11.5116  12.2007  12.2007  12.5311
    14.2106  14.5869

     occupation numbers 
     1.0000   1.0000   1.0000   1.0000   1.0000   1.0000   1.0000   1.0000
     1.0000   1.0000   1.0000   1.0000   1.0000   1.0000   1.0000   1.0000
     1.0000   1.0000   1.0000   1.0000   1.0000   1.0000   1.0000   1.0000
     1.0000   1.0000   1.0160   1.0160   0.0001   0.0000   0.0000   0.0000
     0.0000   0.0000

          k = 0.1111 0.2222 0.2222 (  3593 PWs)   bands (ev):

    -6.2337  -6.2337  -6.2313  -6.1537  -6.1537  -6.1516  -6.1365  -6.1140
    -6.1124  -6.0236  -5.9954  -5.9776  -5.9776  -5.9617  -5.9415  -5.9280
    -5.9280  -5.8864  -5.8851  -5.8851   0.0033   3.1424   3.1424   3.8672
     8.5344   9.1738   9.1738  10.4884  11.7558  11.7558  13.3881  13.3881
    13.5530  13.7547

     occupation numbers 
     1.0000   1.0000   1.0000   1.0000   1.0000   1.0000   1.0000   1.0000
     1.0000   1.0000   1.0000   1.0000   1.0000   1.0000   1.0000   1.0000
     1.0000   1.0000   1.0000   1.0000   1.0000   1.0000   1.0000   1.0000
     1.0000   1.0000   1.0000   1.0826   0.0000   0.0000   0.0000   0.0000
     0.0000   0.0000

          k = 0.1111 0.2222 0.3333 (  3587 PWs)   bands (ev):

    -6.2173  -6.2053  -6.1923  -6.1602  -6.1329  -6.1292  -6.1055  -6.0983
    -6.0938  -6.0274  -6.0179  -6.0102  -5.9959  -5.9719  -5.9701  -5.9570
    -5.9464  -5.8987  -5.8949  -5.8917   0.3850   2.3329   3.3422   3.8406
     8.4892   8.8841   9.9012  10.3284  11.3570  12.4847  12.7400  13.0735
    13.7254  13.9912

     occupation numbers 
     1.0000   1.0000   1.0000   1.0000   1.0000   1.0000   1.0000   1.0000
     1.0000   1.0000   1.0000   1.0000   1.0000   1.0000   1.0000   1.0000
     1.0000   1.0000   1.0000   1.0000   1.0000   1.0000   1.0000   1.0000
     1.0000   1.0000   1.0001   1.0361   0.0014   0.0000   0.0000   0.0000
     0.0000   0.0000

          k = 0.1111 0.2222 0.4444 (  3581 PWs)   bands (ev):

    -6.1977  -6.1775  -6.1696  -6.1502  -6.1191  -6.1118  -6.1007  -6.0877
    -6.0677  -6.0412  -6.0350  -6.0248  -6.0218  -5.9931  -5.9906  -5.9744
    -5.9443  -5.9188  -5.8980  -5.8968   0.9115   1.5698   3.5598   3.7395
     8.4697   8.6065  10.5549  10.6700  10.9581  11.5232  13.0432  13.3383
    13.7487  14.6561

     occupation numbers 
     1.0000   1.0000   1.0000   1.0000   1.0000   1.0000   1.0000   1.0000
     1.0000   1.0000   1.0000   1.0000   1.0000   1.0000   1.0000   1.0000
     1.0000   1.0000   1.0000   1.0000   1.0000   1.0000   1.0000   1.0000
     1.0000   1.0000   1.0734   0.9499   0.2452   0.0000   0.0000   0.0000
     0.0000   0.0000

          k = 0.1111 0.3333 0.3333 (  3568 PWs)   bands (ev):

    -6.1949  -6.1786  -6.1786  -6.1488  -6.1224  -6.1224  -6.1132  -6.0925
    -6.0642  -6.0391  -6.0391  -6.0168  -6.0068  -5.9952  -5.9628  -5.9628
    -5.9559  -5.9141  -5.9063  -5.9063   0.7604   2.6186   2.6186   3.6432
     8.3177   9.2647   9.2647  10.5335  11.4626  12.2158  12.2158  14.0592
    14.0592  14.5822

     occupation numbers 
     1.0000   1.0000   1.0000   1.0000   1.0000   1.0000   1.0000   1.0000
     1.0000   1.0000   1.0000   1.0000   1.0000   1.0000   1.0000   1.0000
     1.0000   1.0000   1.0000   1.0000   1.0000   1.0000   1.0000   1.0000
     1.0000   1.0000   1.0000   1.0802   0.0002   0.0000   0.0000   0.0000
     0.0000   0.0000

          k = 0.1111 0.3333 0.4444 (  3567 PWs)   bands (ev):

    -6.1717  -6.1636  -6.1515  -6.1445  -6.1254  -6.1191  -6.1176  -6.0790
    -6.0751  -6.0559  -6.0365  -6.0198  -6.0072  -5.9925  -5.9887  -5.9734
    -5.9376  -5.9247  -5.9205  -5.9199   1.2733   1.9049   2.9718   3.3368
     8.3868   8.7238   9.8330  10.5711  10.9853  11.5797  12.9975  13.7999
    14.3365  14.6548

     occupation numbers 
     1.0000   1.0000   1.0000   1.0000   1.0000   1.0000   1.0000   1.0000
     1.0000   1.0000   1.0000   1.0000   1.0000   1.0000   1.0000   1.0000
     1.0000   1.0000   1.0000   1.0000   1.0000   1.0000   1.0000   1.0000
     1.0000   1.0000   1.0000   1.0653   0.1959   0.0000   0.0000   0.0000
     0.0000   0.0000

          k = 0.1111 0.4444 0.4444 (  3569 PWs)   bands (ev):

    -6.1619  -6.1417  -6.1417  -6.1357  -6.1255  -6.1227  -6.1227  -6.0873
    -6.0730  -6.0543  -6.0543  -6.0460  -5.9892  -5.9753  -5.9753  -5.9624
    -5.9510  -5.9369  -5.9352  -5.9352   1.7597   2.3428   2.3428   2.8424
     8.6247   9.1282   9.1282   9.7587  11.5494  12.2334  12.2334  12.9747
    15.6332  15.7546

     occupation numbers 
     1.0000   1.0000   1.0000   1.0000   1.0000   1.0000   1.0000   1.0000
     1.0000   1.0000   1.0000   1.0000   1.0000   1.0000   1.0000   1.0000
     1.0000   1.0000   1.0000   1.0000   1.0000   1.0000   1.0000   1.0000
     1.0000   1.0000   1.0000   1.0000   0.0000   0.0000   0.0000   0.0000
     0.0000   0.0000

          k = 0.2222 0.2222 0.2222 (  3596 PWs)   bands (ev):

    -6.2210  -6.2210  -6.2210  -6.1520  -6.1277  -6.1277  -6.1277  -6.1146
    -6.1146  -5.9968  -5.9968  -5.9926  -5.9926  -5.9926  -5.9558  -5.9558
    -5.9558  -5.8830  -5.8830  -5.8830   0.2327   3.2470   3.2470   3.2470
     8.7350   8.7350   8.7350  11.5525  11.5525  11.5525  12.4356  14.0137
    14.0137  14.0137

     occupation numbers 
     1.0000   1.0000   1.0000   1.0000   1.0000   1.0000   1.0000   1.0000
     1.0000   1.0000   1.0000   1.0000   1.0000   1.0000   1.0000   1.0000
     1.0000   1.0000   1.0000   1.0000   1.0000   1.0000   1.0000   1.0000
     1.0000   1.0000   1.0000   0.0000   0.0000   0.0000   0.0000   0.0000
     0.0000   0.0000

          k = 0.2222 0.2222 0.3333 (  3572 PWs)   bands (ev):

    -6.2057  -6.1960  -6.1960  -6.1578  -6.1166  -6.1130  -6.1067  -6.1032
    -6.1032  -6.0279  -6.0207  -6.0207  -5.9987  -5.9745  -5.9729  -5.9729
    -5.9642  -5.8896  -5.8896  -5.8891   0.6109   2.4997   3.3776   3.3776
     8.2548   8.2548   9.1369  11.3932  11.6229  11.6229  12.9364  14.0198
    14.0198  14.4364

     occupation numbers 
     1.0000   1.0000   1.0000   1.0000   1.0000   1.0000   1.0000   1.0000
     1.0000   1.0000   1.0000   1.0000   1.0000   1.0000   1.0000   1.0000
     1.0000   1.0000   1.0000   1.0000   1.0000   1.0000   1.0000   1.0000
     1.0000   1.0000   1.0000   0.0007   0.0000   0.0000   0.0000   0.0000
     0.0000   0.0000

          k = 0.2222 0.2222 0.4444 (  3563 PWs)   bands (ev):

    -6.1881  -6.1710  -6.1618  -6.1618  -6.1143  -6.1143  -6.1088  -6.1086
    -6.0887  -6.0614  -6.0215  -6.0215  -5.9985  -5.9906  -5.9895  -5.9895
    -5.9323  -5.9062  -5.8967  -5.8967   1.1291   1.7702   3.4713   3.4713
     7.9545   7.9545   9.7250  10.4824  11.7628  11.7628  13.7828  13.7828
    14.4388  15.0082

     occupation numbers 
     1.0000   1.0000   1.0000   1.0000   1.0000   1.0000   1.0000   1.0000
     1.0000   1.0000   1.0000   1.0000   1.0000   1.0000   1.0000   1.0000
     1.0000   1.0000   1.0000   1.0000   1.0000   1.0000   1.0000   1.0000
     1.0000   1.0000   1.0000   1.0819   0.0000   0.0000   0.0000   0.0000
     0.0000   0.0000

          k = 0.2222 0.3333 0.3333 (  3587 PWs)   bands (ev):

    -6.1874  -6.1830  -6.1830  -6.1560  -6.1172  -6.1138  -6.1114  -6.1114
    -6.0879  -6.0503  -6.0503  -6.0419  -5.9781  -5.9757  -5.9740  -5.9740
    -5.9483  -5.8965  -5.8915  -5.8915   0.9805   2.7479   2.7479   3.3707
     7.7772   8.4015   8.4015  10.3820  11.9762  13.0030  13.0030  14.5641
    14.5641  14.7981

     occupation numbers 
     1.0000   1.0000   1.0000   1.0000   1.0000   1.0000   1.0000   1.0000
     1.0000   1.0000   1.0000   1.0000   1.0000   1.0000   1.0000   1.0000
     1.0000   1.0000   1.0000   1.0000   1.0000   1.0000   1.0000   1.0000
     1.0000   1.0000   1.0000   1.0538   0.0000   0.0000   0.0000   0.0000
     0.0000   0.0000

          k = 0.2222 0.3333 0.4444 (  3572 PWs)   bands (ev):

    -6.1692  -6.1662  -6.1591  -6.1507  -6.1339  -6.1219  -6.1195  -6.1095
    -6.1022  -6.0789  -6.0530  -6.0518  -5.9727  -5.9723  -5.9652  -5.9642
    -5.9240  -5.9052  -5.9032  -5.9016   1.4807   2.0860   3.0257   3.2554
     7.6333   7.8634   8.8459   9.5207  12.3988  12.8018  14.1917  14.6695
    14.8889  15.1001

     occupation numbers 
     1.0000   1.0000   1.0000   1.0000   1.0000   1.0000   1.0000   1.0000
     1.0000   1.0000   1.0000   1.0000   1.0000   1.0000   1.0000   1.0000
     1.0000   1.0000   1.0000   1.0000   1.0000   1.0000   1.0000   1.0000
     1.0000   1.0000   1.0000   1.0000   0.0000   0.0000   0.0000   0.0000
     0.0000   0.0000

          k = 0.2222 0.4444 0.4444 (  3580 PWs)   bands (ev):

    -6.1596  -6.1489  -6.1448  -6.1448  -6.1383  -6.1383  -6.1297  -6.1136
    -6.1052  -6.0852  -6.0852  -6.0816  -5.9504  -5.9484  -5.9484  -5.9373
    -5.9209  -5.9207  -5.9125  -5.9125   1.9453   2.4836   2.4836   2.9026
     7.7157   8.1491   8.1491   8.7246  12.9950  13.6119  13.6119  14.3574
    15.7633  15.8590

     occupation numbers 
     1.0000   1.0000   1.0000   1.0000   1.0000   1.0000   1.0000   1.0000
     1.0000   1.0000   1.0000   1.0000   1.0000   1.0000   1.0000   1.0000
     1.0000   1.0000   1.0000   1.0000   1.0000   1.0000   1.0000   1.0000
     1.0000   1.0000   1.0000   1.0000   0.0000   0.0000   0.0000   0.0000
     0.0000   0.0000

          k = 0.3333 0.3333 0.3333 (  3590 PWs)   bands (ev):

    -6.1773  -6.1773  -6.1773  -6.1614  -6.1234  -6.1234  -6.1105  -6.1105
    -6.1105  -6.0761  -6.0761  -6.0761  -5.9584  -5.9584  -5.9584  -5.9416
    -5.9416  -5.8888  -5.8888  -5.8888   1.3368   2.9140   2.9140   2.9140
     7.6849   7.6849   7.6849   9.3931  13.5286  13.5286  13.5286  15.1473
    15.1473  15.1473

     occupation numbers 
     1.0000   1.0000   1.0000   1.0000   1.0000   1.0000   1.0000   1.0000
     1.0000   1.0000   1.0000   1.0000   1.0000   1.0000   1.0000   1.0000
     1.0000   1.0000   1.0000   1.0000   1.0000   1.0000   1.0000   1.0000
     1.0000   1.0000   1.0000   1.0000   0.0000   0.0000   0.0000   0.0000
     0.0000   0.0000

          k = 0.3333 0.3333 0.4444 (  3575 PWs)   bands (ev):

    -6.1679  -6.1636  -6.1595  -6.1595  -6.1323  -6.1323  -6.1288  -6.1257
    -6.1199  -6.1035  -6.0863  -6.0863  -5.9461  -5.9403  -5.9382  -5.9382
    -5.9124  -5.8949  -5.8949  -5.8941   1.8091   2.3586   3.0370   3.0370
     7.2762   7.2762   7.9824   8.5755  13.8304  13.8304  15.0613  15.3122
    15.3122  15.6114

     occupation numbers 
     1.0000   1.0000   1.0000   1.0000   1.0000   1.0000   1.0000   1.0000
     1.0000   1.0000   1.0000   1.0000   1.0000   1.0000   1.0000   1.0000
     1.0000   1.0000   1.0000   1.0000   1.0000   1.0000   1.0000   1.0000
     1.0000   1.0000   1.0000   1.0000   0.0000   0.0000   0.0000   0.0000
     0.0000   0.0000

          k = 0.3333 0.4444 0.4444 (  3578 PWs)   bands (ev):

    -6.1632  -6.1597  -6.1593  -6.1593  -6.1386  -6.1385  -6.1339  -6.1326
    -6.1270  -6.1135  -6.1135  -6.1113  -5.9211  -5.9211  -5.9187  -5.9151
    -5.9058  -5.8998  -5.8965  -5.8965   2.2254   2.6668   2.6668   2.9207
     7.1023   7.3656   7.3656   7.8312  14.5108  14.9736  14.9736  15.6993
    15.9602  16.0033

     occupation numbers 
     1.0000   1.0000   1.0000   1.0000   1.0000   1.0000   1.0000   1.0000
     1.0000   1.0000   1.0000   1.0000   1.0000   1.0000   1.0000   1.0000
     1.0000   1.0000   1.0000   1.0000   1.0000   1.0000   1.0000   1.0000
     1.0000   1.0000   1.0000   1.0000   0.0000   0.0000   0.0000   0.0000
     0.0000   0.0000

          k = 0.4444 0.4444 0.4444 (  3569 PWs)   bands (ev):

    -6.1699  -6.1668  -6.1668  -6.1668  -6.1383  -6.1383  -6.1383  -6.1357
    -6.1357  -6.1302  -6.1302  -6.1302  -5.9014  -5.9014  -5.9014  -5.8984
    -5.8984  -5.8918  -5.8918  -5.8918   2.5434   2.8048   2.8048   2.8048
     6.9208   6.9208   6.9208   7.1937  15.8475  15.8475  15.8475  16.1928
    16.1928  16.1929

     occupation numbers 
     1.0000   1.0000   1.0000   1.0000   1.0000   1.0000   1.0000   1.0000
     1.0000   1.0000   1.0000   1.0000   1.0000   1.0000   1.0000   1.0000
     1.0000   1.0000   1.0000   1.0000   1.0000   1.0000   1.0000   1.0000
     1.0000   1.0000   1.0000   1.0000   0.0000   0.0000   0.0000   0.0000
     0.0000   0.0000

     the Fermi energy is    10.8889 ev

!    total energy              =   -3482.22133735 Ry
     total all-electron energy =   -167056.335200 Ry
     estimated scf accuracy    <          6.3E-11 Ry
     smearing contrib. (-TS)   =       0.00161336 Ry
     internal energy E=F+TS    =   -3482.22295071 Ry

     The total energy is F=E-TS. E is the sum of the following terms:
     one-electron contribution =    -117.03395117 Ry
     hartree contribution      =     107.19249195 Ry
     xc contribution           =    -177.39528919 Ry
     ewald contribution        =    -381.22872623 Ry
     one-center paw contrib.   =   -2913.75747607 Ry
      -> PAW hartree energy AE =     200.76134750 Ry
      -> PAW hartree energy PS =    -200.25585148 Ry
      -> PAW xc energy AE      =   -1545.09922372 Ry
      -> PAW xc energy PS      =      87.71499371 Ry
      -> total E_H with PAW    =     107.69798797 Ry
      -> total E_XC with PAW   =   -1634.77951920 Ry

     convergence has been achieved in  25 iterations

     Forces acting on atoms (cartesian axes, Ry/au):

     atom    1 type  1   force =     0.00000000    0.00000000    0.00000000
     atom    2 type  1   force =     0.00000000   -0.00000000    0.00000000
     atom    3 type  1   force =     0.00000000    0.00000000    0.00000000
     atom    4 type  1   force =     0.00000000    0.00000000    0.00000000
     The non-local contrib.  to forces
     atom    1 type  1   force =     0.00000000    0.00000000    0.00000000
     atom    2 type  1   force =     0.00000000   -0.00000000    0.00000000
     atom    3 type  1   force =     0.00000000    0.00000000    0.00000000
     atom    4 type  1   force =     0.00000000    0.00000000    0.00000000
     The ionic contribution  to forces
     atom    1 type  1   force =    -0.00000000   -0.00000000   -0.00000000
     atom    2 type  1   force =    -0.00000000    0.00000000    0.00000000
     atom    3 type  1   force =     0.00000000   -0.00000000    0.00000000
     atom    4 type  1   force =     0.00000000    0.00000000   -0.00000000
     The local contribution  to forces
     atom    1 type  1   force =     0.00000000    0.00000000    0.00000000
     atom    2 type  1   force =     0.00000000    0.00000000    0.00000000
     atom    3 type  1   force =     0.00000000    0.00000000    0.00000000
     atom    4 type  1   force =     0.00000000    0.00000000    0.00000000
     The core correction contribution to forces
     atom    1 type  1   force =     0.00000000    0.00000000    0.00000000
     atom    2 type  1   force =     0.00000000    0.00000000   -0.00000000
     atom    3 type  1   force =     0.00000000    0.00000000   -0.00000000
     atom    4 type  1   force =     0.00000000    0.00000000    0.00000000
     The Hubbard contrib.    to forces
     atom    1 type  1   force =     0.00000000    0.00000000    0.00000000
     atom    2 type  1   force =     0.00000000    0.00000000    0.00000000
     atom    3 type  1   force =     0.00000000    0.00000000    0.00000000
     atom    4 type  1   force =     0.00000000    0.00000000    0.00000000
     The SCF correction term to forces
     atom    1 type  1   force =     0.00000000   -0.00000000    0.00000000
     atom    2 type  1   force =     0.00000000   -0.00000000    0.00000000
     atom    3 type  1   force =     0.00000000   -0.00000000    0.00000000
     atom    4 type  1   force =    -0.00000000   -0.00000000    0.00000000

     Total force =     0.000000     Total SCF correction =     0.000000


     Computing stress (Cartesian axis) and pressure

          total   stress  (Ry/bohr**3)                   (kbar)     P=        9.86
   0.00006701   0.00000000   0.00000000            9.86        0.00        0.00
   0.00000000   0.00006701   0.00000000            0.00        9.86        0.00
   0.00000000   0.00000000   0.00006701            0.00        0.00        9.86

     kinetic stress (kbar)  14498.06      0.00      0.00
                                0.00  14498.06      0.00
                                0.00      0.00  14498.06

     local   stress (kbar)   5910.51     -0.00     -0.00
                               -0.00   5910.51      0.00
                               -0.00      0.00   5910.51

     nonloc. stress (kbar)   1296.37      0.00      0.00
                                0.00   1296.37      0.00
                                0.00      0.00   1296.37

     hartree stress (kbar)   6270.48     -0.00      0.00
                               -0.00   6270.48     -0.00
                                0.00     -0.00   6270.48

     exc-cor stress (kbar)  14450.11      0.00     -0.00
                                0.00  14450.11     -0.00
                               -0.00     -0.00  14450.11

     corecor stress (kbar) -20114.80     -0.00      0.00
                               -0.00 -20114.80     -0.00
                                0.00     -0.00 -20114.80

     ewald   stress (kbar) -22300.87      0.00     -0.00
                                0.00 -22300.87     -0.00
                               -0.00     -0.00 -22300.87

     hubbard stress (kbar)      0.00      0.00      0.00
                                0.00      0.00      0.00
                                0.00      0.00      0.00

     DFT-D   stress (kbar)      0.00      0.00      0.00
                                0.00      0.00      0.00
                                0.00      0.00      0.00

     XDM     stress (kbar)      0.00      0.00      0.00
                                0.00      0.00      0.00
                                0.00      0.00      0.00

     dft-nl  stress (kbar)      0.00      0.00      0.00
                                0.00      0.00      0.00
                                0.00      0.00      0.00

     TS-vdW  stress (kbar)      0.00      0.00      0.00
                                0.00      0.00      0.00
                                0.00      0.00      0.00

     MDB     stress (kbar)      0.00      0.00      0.00
                                0.00      0.00      0.00
                                0.00      0.00      0.00

     3D-RISM stress (kbar)      0.00      0.00      0.00
                                0.00      0.00      0.00
                                0.00      0.00      0.00


     Writing all to output data dir ../out/aiida.save/ :
     XML data file, charge density, pseudopotentials, collected wavefunctions
 
     init_run     :      2.97s CPU      3.22s WALL (       1 calls)
     electrons    :    161.00s CPU    161.35s WALL (       1 calls)
     forces       :      0.60s CPU      0.60s WALL (       1 calls)
     stress       :      2.21s CPU      2.22s WALL (       1 calls)

     Called by init_run:
     wfcinit      :      1.91s CPU      1.99s WALL (       1 calls)
     wfcinit:atom :      0.31s CPU      0.31s WALL (      35 calls)
     wfcinit:wfcr :      1.44s CPU      1.50s WALL (      35 calls)
     potinit      :      0.57s CPU      0.60s WALL (       1 calls)
     hinit0       :      0.27s CPU      0.34s WALL (       1 calls)

     Called by electrons:
     c_bands      :    131.89s CPU    132.07s WALL (      26 calls)
     sum_band     :     19.59s CPU     19.61s WALL (      26 calls)
     v_of_rho     :      0.52s CPU      0.54s WALL (      26 calls)
     v_h          :      0.06s CPU      0.06s WALL (      26 calls)
     v_xc         :      0.50s CPU      0.52s WALL (      28 calls)
     newd         :      2.83s CPU      2.88s WALL (      26 calls)
                                        2.88s GPU  (      26 calls)
     PAW_pot      :      6.04s CPU      6.17s WALL (      26 calls)
     mix_rho      :      0.57s CPU      0.58s WALL (      26 calls)

     Called by c_bands:
     init_us_2    :      4.01s CPU      4.02s WALL (    1925 calls)
     cegterg      :    127.33s CPU    127.50s WALL (     910 calls)

     Called by sum_band:
     sum_band:wei :      0.02s CPU      0.02s WALL (      26 calls)
     sum_band:loo :     16.37s CPU     16.38s WALL (      26 calls)
     sum_band:buf :      0.27s CPU      0.27s WALL (     910 calls)
     sum_band:ini :      1.84s CPU      1.84s WALL (     910 calls)
     sum_band:cal :      1.46s CPU      1.46s WALL (     910 calls)
     sum_band:bec :      1.82s CPU      1.83s WALL (     910 calls)
     addusdens    :      2.97s CPU      2.97s WALL (      26 calls)
                                        2.97s GPU  (      26 calls)
     addusd:skk   :      0.03s CPU      0.04s WALL (      26 calls)
                                        0.03s GPU  (      26 calls)

     Called by *egterg:
     cdiaghg      :     17.84s CPU     18.22s WALL (    4500 calls)
                                       17.63s GPU  (    4500 calls)
     cegterg:over :     12.34s CPU     12.36s WALL (    3625 calls)
     cegterg:upda :     14.59s CPU     14.60s WALL (    3625 calls)
     cegterg:last :      5.56s CPU      5.56s WALL (    2619 calls)
     h_psi        :     62.47s CPU     63.24s WALL (    4570 calls)
                                       62.61s GPU  (    4570 calls)
     s_psi        :      6.33s CPU      6.34s WALL (    4570 calls)
     g_psi        :      0.01s CPU      0.71s WALL (    3625 calls)
                                        0.10s GPU  (    3625 calls)

     Called by h_psi:
     h_psi:calbec :      5.62s CPU      6.27s WALL (    4570 calls)
                                        5.01s GPU  (    4570 calls)
     vloc_psi     :     45.82s CPU     46.53s WALL (    4570 calls)
                                       45.90s GPU  (    4570 calls)
     add_vuspsi   :      4.42s CPU      7.29s WALL (    4570 calls)
                                        6.68s GPU  (    4570 calls)

     General routines
     calbec       :      8.02s CPU      8.05s WALL (    6075 calls)
     fft          :      0.38s CPU      0.53s WALL (     362 calls)
                                        0.36s GPU  (     336 calls)
     ffts         :      0.15s CPU      0.15s WALL (      52 calls)
                                        0.02s GPU  (      26 calls)
     fftw         :     22.41s CPU     26.30s WALL (   21278 calls)
                                       21.48s GPU  (   21278 calls)
     interpolate  :      0.25s CPU      0.26s WALL (      26 calls)
 
     Parallel routines

     PAW routines
     PAW_pot      :      6.04s CPU      6.17s WALL (      26 calls)
     PAW_symme    :      0.03s CPU      0.03s WALL (      52 calls)
 
     PWSCF        :   2m47.09s CPU   2m47.79s WALL

 
   This run was terminated on:  16: 8:23  17May2025            

=------------------------------------------------------------------------------=
   JOB DONE.
=------------------------------------------------------------------------------=
