
     Program PWSCF v.7.4 starts on  9Apr2025 at 16: 8:53 

     This program is part of the open-source Quantum ESPRESSO suite
     for quantum simulation of materials; please cite
         "P. Giannozzi et al., J. Phys.:Condens. Matter 21 395502 (2009);
         "P. Giannozzi et al., J. Phys.:Condens. Matter 29 465901 (2017);
         "P. Giannozzi et al., J. Chem. Phys. 152 154105 (2020);
          URL http://www.quantum-espresso.org", 
     in publications or presentations arising from this work. More details at
     http://www.quantum-espresso.org/quote

     Parallel version (MPI), running on     2 processors

     MPI processes distributed on     1 nodes
     28359 MiB available memory on the printing compute node when the environment starts
 
     Waiting for input...
     Reading input from standard input
Warning: card &CELL ignored
Warning: card CELL_DYNAMICS = 'BFGS' ignored
Warning: card PRESS_CONV_THR= 0.05 ignored
Warning: card CELL_DOFREE = 'ALL' ignored
Warning: card / ignored

     Current dimensions of program PWSCF are:
     Max number of different atomic species (ntypx) = 10
     Max number of k-points (npk) =  40000
     Max angular momentum in pseudopotentials (lmaxx) =  4
     Message from routine setup:
     using ibrav=0 with symmetry is DISCOURAGED, use correct ibrav instead
 
     R & G space division:  proc/nbgrp/npool/nimage =       2
     Subspace diagonalization in iterative solution of the eigenvalue problem:
     a serial algorithm will be used

 
     Parallelization info
     --------------------
     sticks:   dense  smooth     PW     G-vecs:    dense   smooth      PW
     Min         279     141     42                 9813     3481     630
     Max         280     142     43                 9818     3486     639
     Sum         559     283     85                19631     6967    1269
 
     Using Slab Decomposition
 


     bravais-lattice index     =            0
     lattice parameter (alat)  =       5.0297  a.u.
     unit-cell volume          =     203.2640 (a.u.)^3
     number of atoms/cell      =            2
     number of atomic types    =            1
     number of electrons       =        40.00
     number of Kohn-Sham states=           24
     kinetic-energy cutoff     =      40.0000  Ry
     charge density cutoff     =     320.0000  Ry
     scf convergence threshold =      4.0E-10
     mixing beta               =       0.4000
     number of iterations used =            8  plain     mixing
     Exchange-correlation= SLA  PW   PBE  PBE
                           (   1   4   3   4   0   0   0)

     GPU acceleration is ACTIVE.  1 visible GPUs per MPI rank
     GPU-aware MPI enabled


     GPU used by master process:

        Device Number: 0
        Device name: NVIDIA RTX A2000 12GB
        Compute capability : 86
        Ratio of single to double precision performance  : 32
        Memory Clock Rate (KHz): 6001000
        Memory Bus Width (bits): 192
        Peak Memory Bandwidth (GB/s): 288.05

     celldm(1)=   5.029671  celldm(2)=   0.000000  celldm(3)=   0.000000
     celldm(4)=   0.000000  celldm(5)=   0.000000  celldm(6)=   0.000000

     crystal axes: (cart. coord. in units of alat)
               a(1) = (  -0.500000  -0.866025   0.000000 )  
               a(2) = (  -0.500000   0.866025  -0.000000 )  
               a(3) = (  -0.000000   0.000000  -1.844638 )  

     reciprocal axes: (cart. coord. in units 2 pi/alat)
               b(1) = ( -1.000000 -0.577350  0.000000 )  
               b(2) = ( -1.000000  0.577350  0.000000 )  
               b(3) = (  0.000000 -0.000000 -0.542112 )  


     PseudoPot. # 1 for Zn read from file:
     ../pseudo/Zn_pbe_v1.uspp.F.UPF
     MD5 check sum: df62231357ef9e81f77b2b3087fa5675
     Pseudo is Ultrasoft, Zval = 20.0
     Generated by new atomic code, or converted to UPF format
     Using radial grid of  943 points,  6 beta functions with: 
                l(1) =   0
                l(2) =   0
                l(3) =   1
                l(4) =   1
                l(5) =   2
                l(6) =   2
     Q(r) pseudized with  8 coefficients,  rinner =    1.100   1.100   1.100
                                                       1.100   1.100

     atomic species   valence    mass     pseudopotential
     Zn               20.00    65.38000     Zn( 1.00)

     24 Sym. Ops., with inversion, found (12 have fractional translation)


                                    s                        frac. trans.

      isym =  1     identity                                     

 cryst.   s( 1) = (     1          0          0      )
                  (     0          1          0      )
                  (     0          0          1      )

 cart.    s( 1) = (  1.0000000  0.0000000  0.0000000 )
                  ( -0.0000000  1.0000000  0.0000000 )
                  (  0.0000000 -0.0000000  1.0000000 )


      isym =  2     180 deg rotation - cart. axis [0,0,1]        

 cryst.   s( 2) = (    -1          0          0      )    f =(  0.0000000 )
                  (     0         -1          0      )       (  0.0000000 )
                  (     0          0          1      )       (  0.5000000 )

 cart.    s( 2) = ( -1.0000000 -0.0000000  0.0000000 )    f =( -0.0000000 )
                  (  0.0000000 -1.0000000  0.0000000 )       (  0.0000000 )
                  (  0.0000000  0.0000000  1.0000000 )       ( -0.9223191 )


      isym =  3     180 deg rotation - cart. axis [0,1,0]        

 cryst.   s( 3) = (     0         -1          0      )    f =(  0.0000000 )
                  (    -1          0          0      )       (  0.0000000 )
                  (     0          0         -1      )       (  0.5000000 )

 cart.    s( 3) = ( -1.0000000  0.0000000 -0.0000000 )    f =( -0.0000000 )
                  (  0.0000000  1.0000000  0.0000000 )       (  0.0000000 )
                  (  0.0000000 -0.0000000 -1.0000000 )       ( -0.9223191 )


      isym =  4     180 deg rotation - cart. axis [1,0,0]        

 cryst.   s( 4) = (     0          1          0      )
                  (     1          0          0      )
                  (     0          0         -1      )

 cart.    s( 4) = (  1.0000000 -0.0000000 -0.0000000 )
                  ( -0.0000000 -1.0000000  0.0000000 )
                  (  0.0000000  0.0000000 -1.0000000 )


      isym =  5      60 deg rotation - cryst. axis [0,0,1]       

 cryst.   s( 5) = (     0         -1          0      )    f =(  0.0000000 )
                  (     1          1          0      )       (  0.0000000 )
                  (     0          0          1      )       (  0.5000000 )

 cart.    s( 5) = (  0.5000000 -0.8660254  0.0000000 )    f =( -0.0000000 )
                  (  0.8660254  0.5000000  0.0000000 )       (  0.0000000 )
                  ( -0.0000000  0.0000000  1.0000000 )       ( -0.9223191 )


      isym =  6      60 deg rotation - cryst. axis [0,0,-1]      

 cryst.   s( 6) = (     1          1          0      )    f =( -0.0000000 )
                  (    -1          0          0      )       (  0.0000000 )
                  (     0          0          1      )       (  0.5000000 )

 cart.    s( 6) = (  0.5000000  0.8660254  0.0000000 )    f =(  0.0000000 )
                  ( -0.8660254  0.5000000  0.0000000 )       (  0.0000000 )
                  (  0.0000000  0.0000000  1.0000000 )       ( -0.9223191 )


      isym =  7     120 deg rotation - cryst. axis [0,0,1]       

 cryst.   s( 7) = (    -1         -1          0      )
                  (     1          0          0      )
                  (     0          0          1      )

 cart.    s( 7) = ( -0.5000000 -0.8660254  0.0000000 )
                  (  0.8660254 -0.5000000  0.0000000 )
                  (  0.0000000  0.0000000  1.0000000 )


      isym =  8     120 deg rotation - cryst. axis [0,0,-1]      

 cryst.   s( 8) = (     0          1          0      )
                  (    -1         -1          0      )
                  (     0          0          1      )

 cart.    s( 8) = ( -0.5000000  0.8660254  0.0000000 )
                  ( -0.8660254 -0.5000000  0.0000000 )
                  (  0.0000000  0.0000000  1.0000000 )


      isym =  9     180 deg rotation - cryst. axis [1,-1,0]      

 cryst.   s( 9) = (    -1          0          0      )    f =( -0.0000000 )
                  (     1          1          0      )       (  0.0000000 )
                  (     0          0         -1      )       (  0.5000000 )

 cart.    s( 9) = (  0.5000000 -0.8660254 -0.0000000 )    f =(  0.0000000 )
                  ( -0.8660254 -0.5000000  0.0000000 )       (  0.0000000 )
                  (  0.0000000  0.0000000 -1.0000000 )       ( -0.9223191 )


      isym = 10     180 deg rotation - cryst. axis [2,1,0]       

 cryst.   s(10) = (     1          1          0      )    f =(  0.0000000 )
                  (     0         -1          0      )       (  0.0000000 )
                  (     0          0         -1      )       (  0.5000000 )

 cart.    s(10) = (  0.5000000  0.8660254 -0.0000000 )    f =( -0.0000000 )
                  (  0.8660254 -0.5000000  0.0000000 )       (  0.0000000 )
                  (  0.0000000  0.0000000 -1.0000000 )       ( -0.9223191 )


      isym = 11     180 deg rotation - cryst. axis [0,1,0]       

 cryst.   s(11) = (    -1         -1          0      )
                  (     0          1          0      )
                  (     0          0         -1      )

 cart.    s(11) = ( -0.5000000 -0.8660254 -0.0000000 )
                  ( -0.8660254  0.5000000  0.0000000 )
                  (  0.0000000  0.0000000 -1.0000000 )


      isym = 12     180 deg rotation - cryst. axis [1,1,0]       

 cryst.   s(12) = (     1          0          0      )
                  (    -1         -1          0      )
                  (     0          0         -1      )

 cart.    s(12) = ( -0.5000000  0.8660254 -0.0000000 )
                  (  0.8660254  0.5000000  0.0000000 )
                  (  0.0000000  0.0000000 -1.0000000 )


      isym = 13     inversion                                    

 cryst.   s(13) = (    -1          0          0      )
                  (     0         -1          0      )
                  (     0          0         -1      )

 cart.    s(13) = ( -1.0000000 -0.0000000 -0.0000000 )
                  (  0.0000000 -1.0000000  0.0000000 )
                  (  0.0000000  0.0000000 -1.0000000 )


      isym = 14     inv. 180 deg rotation - cart. axis [0,0,1]   

 cryst.   s(14) = (     1          0          0      )    f =(  0.0000000 )
                  (     0          1          0      )       (  0.0000000 )
                  (     0          0         -1      )       (  0.5000000 )

 cart.    s(14) = (  1.0000000  0.0000000 -0.0000000 )    f =( -0.0000000 )
                  ( -0.0000000  1.0000000  0.0000000 )       (  0.0000000 )
                  (  0.0000000 -0.0000000 -1.0000000 )       ( -0.9223191 )


      isym = 15     inv. 180 deg rotation - cart. axis [0,1,0]   

 cryst.   s(15) = (     0          1          0      )    f =(  0.0000000 )
                  (     1          0          0      )       (  0.0000000 )
                  (     0          0          1      )       (  0.5000000 )

 cart.    s(15) = (  1.0000000 -0.0000000  0.0000000 )    f =( -0.0000000 )
                  ( -0.0000000 -1.0000000  0.0000000 )       (  0.0000000 )
                  (  0.0000000  0.0000000  1.0000000 )       ( -0.9223191 )


      isym = 16     inv. 180 deg rotation - cart. axis [1,0,0]   

 cryst.   s(16) = (     0         -1          0      )
                  (    -1          0          0      )
                  (     0          0          1      )

 cart.    s(16) = ( -1.0000000  0.0000000  0.0000000 )
                  (  0.0000000  1.0000000  0.0000000 )
                  (  0.0000000 -0.0000000  1.0000000 )


      isym = 17     inv.  60 deg rotation - cryst. axis [0,0,1]  

 cryst.   s(17) = (     0          1          0      )    f =(  0.0000000 )
                  (    -1         -1          0      )       (  0.0000000 )
                  (     0          0         -1      )       (  0.5000000 )

 cart.    s(17) = ( -0.5000000  0.8660254 -0.0000000 )    f =( -0.0000000 )
                  ( -0.8660254 -0.5000000  0.0000000 )       (  0.0000000 )
                  (  0.0000000  0.0000000 -1.0000000 )       ( -0.9223191 )


      isym = 18     inv.  60 deg rotation - cryst. axis [0,0,-1] 

 cryst.   s(18) = (    -1         -1          0      )    f =( -0.0000000 )
                  (     1          0          0      )       (  0.0000000 )
                  (     0          0         -1      )       (  0.5000000 )

 cart.    s(18) = ( -0.5000000 -0.8660254 -0.0000000 )    f =(  0.0000000 )
                  (  0.8660254 -0.5000000  0.0000000 )       (  0.0000000 )
                  (  0.0000000  0.0000000 -1.0000000 )       ( -0.9223191 )


      isym = 19     inv. 120 deg rotation - cryst. axis [0,0,1]  

 cryst.   s(19) = (     1          1          0      )
                  (    -1          0          0      )
                  (     0          0         -1      )

 cart.    s(19) = (  0.5000000  0.8660254 -0.0000000 )
                  ( -0.8660254  0.5000000  0.0000000 )
                  (  0.0000000  0.0000000 -1.0000000 )


      isym = 20     inv. 120 deg rotation - cryst. axis [0,0,-1] 

 cryst.   s(20) = (     0         -1          0      )
                  (     1          1          0      )
                  (     0          0         -1      )

 cart.    s(20) = (  0.5000000 -0.8660254 -0.0000000 )
                  (  0.8660254  0.5000000  0.0000000 )
                  (  0.0000000  0.0000000 -1.0000000 )


      isym = 21     inv. 180 deg rotation - cryst. axis [1,-1,0] 

 cryst.   s(21) = (     1          0          0      )    f =( -0.0000000 )
                  (    -1         -1          0      )       (  0.0000000 )
                  (     0          0          1      )       (  0.5000000 )

 cart.    s(21) = ( -0.5000000  0.8660254  0.0000000 )    f =(  0.0000000 )
                  (  0.8660254  0.5000000  0.0000000 )       (  0.0000000 )
                  (  0.0000000  0.0000000  1.0000000 )       ( -0.9223191 )


      isym = 22     inv. 180 deg rotation - cryst. axis [2,1,0]  

 cryst.   s(22) = (    -1         -1          0      )    f =(  0.0000000 )
                  (     0          1          0      )       (  0.0000000 )
                  (     0          0          1      )       (  0.5000000 )

 cart.    s(22) = ( -0.5000000 -0.8660254  0.0000000 )    f =( -0.0000000 )
                  ( -0.8660254  0.5000000  0.0000000 )       (  0.0000000 )
                  (  0.0000000  0.0000000  1.0000000 )       ( -0.9223191 )


      isym = 23     inv. 180 deg rotation - cryst. axis [0,1,0]  

 cryst.   s(23) = (     1          1          0      )
                  (     0         -1          0      )
                  (     0          0          1      )

 cart.    s(23) = (  0.5000000  0.8660254  0.0000000 )
                  (  0.8660254 -0.5000000  0.0000000 )
                  ( -0.0000000  0.0000000  1.0000000 )


      isym = 24     inv. 180 deg rotation - cryst. axis [1,1,0]  

 cryst.   s(24) = (    -1          0          0      )
                  (     1          1          0      )
                  (     0          0          1      )

 cart.    s(24) = (  0.5000000 -0.8660254  0.0000000 )
                  ( -0.8660254 -0.5000000  0.0000000 )
                  (  0.0000000  0.0000000  1.0000000 )


   Cartesian axes

     site n.     atom                  positions (alat units)
         1        Zn     tau(   1) = (  -0.5000000  -0.2886751  -1.3834786  )
         2        Zn     tau(   2) = (  -0.5000000   0.2886751  -0.4611595  )

   Crystallographic axes

     site n.     atom                  positions (cryst. coord.)
         1        Zn     tau(   1) = (  0.6666667  0.3333333  0.7500000  )
         2        Zn     tau(   2) = (  0.3333333  0.6666667  0.2500000  )

     number of k points=   200  Marzari-Vanderbilt smearing, width (Ry)=  0.0200
                       cart. coord. in units 2pi/alat
        k(    1) = (   0.0000000   0.0000000   0.0000000), wk =   0.0006156
        k(    2) = (   0.0000000   0.0000000  -0.0602346), wk =   0.0012311
        k(    3) = (   0.0000000   0.0000000  -0.1204693), wk =   0.0012311
        k(    4) = (   0.0000000   0.0000000  -0.1807039), wk =   0.0012311
        k(    5) = (   0.0000000   0.0000000  -0.2409386), wk =   0.0012311
        k(    6) = (  -0.0526316   0.0303869   0.0000000), wk =   0.0036934
        k(    7) = (  -0.0526316   0.0303869  -0.0602346), wk =   0.0073869
        k(    8) = (  -0.0526316   0.0303869  -0.1204693), wk =   0.0073869
        k(    9) = (  -0.0526316   0.0303869  -0.1807039), wk =   0.0073869
        k(   10) = (  -0.0526316   0.0303869  -0.2409386), wk =   0.0073869
        k(   11) = (  -0.1052632   0.0607737   0.0000000), wk =   0.0036934
        k(   12) = (  -0.1052632   0.0607737  -0.0602346), wk =   0.0073869
        k(   13) = (  -0.1052632   0.0607737  -0.1204693), wk =   0.0073869
        k(   14) = (  -0.1052632   0.0607737  -0.1807039), wk =   0.0073869
        k(   15) = (  -0.1052632   0.0607737  -0.2409386), wk =   0.0073869
        k(   16) = (  -0.1578947   0.0911606   0.0000000), wk =   0.0036934
        k(   17) = (  -0.1578947   0.0911606  -0.0602346), wk =   0.0073869
        k(   18) = (  -0.1578947   0.0911606  -0.1204693), wk =   0.0073869
        k(   19) = (  -0.1578947   0.0911606  -0.1807039), wk =   0.0073869
        k(   20) = (  -0.1578947   0.0911606  -0.2409386), wk =   0.0073869
        k(   21) = (  -0.2105263   0.1215474   0.0000000), wk =   0.0036934
        k(   22) = (  -0.2105263   0.1215474  -0.0602346), wk =   0.0073869
        k(   23) = (  -0.2105263   0.1215474  -0.1204693), wk =   0.0073869
        k(   24) = (  -0.2105263   0.1215474  -0.1807039), wk =   0.0073869
        k(   25) = (  -0.2105263   0.1215474  -0.2409386), wk =   0.0073869
        k(   26) = (  -0.2631579   0.1519343   0.0000000), wk =   0.0036934
        k(   27) = (  -0.2631579   0.1519343  -0.0602346), wk =   0.0073869
        k(   28) = (  -0.2631579   0.1519343  -0.1204693), wk =   0.0073869
        k(   29) = (  -0.2631579   0.1519343  -0.1807039), wk =   0.0073869
        k(   30) = (  -0.2631579   0.1519343  -0.2409386), wk =   0.0073869
        k(   31) = (  -0.3157895   0.1823211   0.0000000), wk =   0.0036934
        k(   32) = (  -0.3157895   0.1823211  -0.0602346), wk =   0.0073869
        k(   33) = (  -0.3157895   0.1823211  -0.1204693), wk =   0.0073869
        k(   34) = (  -0.3157895   0.1823211  -0.1807039), wk =   0.0073869
        k(   35) = (  -0.3157895   0.1823211  -0.2409386), wk =   0.0073869
        k(   36) = (  -0.3684211   0.2127080   0.0000000), wk =   0.0036934
        k(   37) = (  -0.3684211   0.2127080  -0.0602346), wk =   0.0073869
        k(   38) = (  -0.3684211   0.2127080  -0.1204693), wk =   0.0073869
        k(   39) = (  -0.3684211   0.2127080  -0.1807039), wk =   0.0073869
        k(   40) = (  -0.3684211   0.2127080  -0.2409386), wk =   0.0073869
        k(   41) = (  -0.4210526   0.2430949   0.0000000), wk =   0.0036934
        k(   42) = (  -0.4210526   0.2430949  -0.0602346), wk =   0.0073869
        k(   43) = (  -0.4210526   0.2430949  -0.1204693), wk =   0.0073869
        k(   44) = (  -0.4210526   0.2430949  -0.1807039), wk =   0.0073869
        k(   45) = (  -0.4210526   0.2430949  -0.2409386), wk =   0.0073869
        k(   46) = (  -0.4736842   0.2734817   0.0000000), wk =   0.0036934
        k(   47) = (  -0.4736842   0.2734817  -0.0602346), wk =   0.0073869
        k(   48) = (  -0.4736842   0.2734817  -0.1204693), wk =   0.0073869
        k(   49) = (  -0.4736842   0.2734817  -0.1807039), wk =   0.0073869
        k(   50) = (  -0.4736842   0.2734817  -0.2409386), wk =   0.0073869
        k(   51) = (  -0.1052632   0.0000000   0.0000000), wk =   0.0036934
        k(   52) = (  -0.1052632   0.0000000  -0.0602346), wk =   0.0073869
        k(   53) = (  -0.1052632   0.0000000  -0.1204693), wk =   0.0073869
        k(   54) = (  -0.1052632   0.0000000  -0.1807039), wk =   0.0073869
        k(   55) = (  -0.1052632   0.0000000  -0.2409386), wk =   0.0073869
        k(   56) = (  -0.1578947   0.0303869   0.0000000), wk =   0.0073869
        k(   57) = (  -0.1578947   0.0303869  -0.0602346), wk =   0.0147738
        k(   58) = (  -0.1578947   0.0303869  -0.1204693), wk =   0.0147738
        k(   59) = (  -0.1578947   0.0303869  -0.1807039), wk =   0.0147738
        k(   60) = (  -0.1578947   0.0303869  -0.2409386), wk =   0.0147738
        k(   61) = (  -0.2105263   0.0607737   0.0000000), wk =   0.0073869
        k(   62) = (  -0.2105263   0.0607737  -0.0602346), wk =   0.0147738
        k(   63) = (  -0.2105263   0.0607737  -0.1204693), wk =   0.0147738
        k(   64) = (  -0.2105263   0.0607737  -0.1807039), wk =   0.0147738
        k(   65) = (  -0.2105263   0.0607737  -0.2409386), wk =   0.0147738
        k(   66) = (  -0.2631579   0.0911606   0.0000000), wk =   0.0073869
        k(   67) = (  -0.2631579   0.0911606  -0.0602346), wk =   0.0147738
        k(   68) = (  -0.2631579   0.0911606  -0.1204693), wk =   0.0147738
        k(   69) = (  -0.2631579   0.0911606  -0.1807039), wk =   0.0147738
        k(   70) = (  -0.2631579   0.0911606  -0.2409386), wk =   0.0147738
        k(   71) = (  -0.3157895   0.1215474   0.0000000), wk =   0.0073869
        k(   72) = (  -0.3157895   0.1215474  -0.0602346), wk =   0.0147738
        k(   73) = (  -0.3157895   0.1215474  -0.1204693), wk =   0.0147738
        k(   74) = (  -0.3157895   0.1215474  -0.1807039), wk =   0.0147738
        k(   75) = (  -0.3157895   0.1215474  -0.2409386), wk =   0.0147738
        k(   76) = (  -0.3684211   0.1519343   0.0000000), wk =   0.0073869
        k(   77) = (  -0.3684211   0.1519343  -0.0602346), wk =   0.0147738
        k(   78) = (  -0.3684211   0.1519343  -0.1204693), wk =   0.0147738
        k(   79) = (  -0.3684211   0.1519343  -0.1807039), wk =   0.0147738
        k(   80) = (  -0.3684211   0.1519343  -0.2409386), wk =   0.0147738
        k(   81) = (  -0.4210526   0.1823211   0.0000000), wk =   0.0073869
        k(   82) = (  -0.4210526   0.1823211  -0.0602346), wk =   0.0147738
        k(   83) = (  -0.4210526   0.1823211  -0.1204693), wk =   0.0147738
        k(   84) = (  -0.4210526   0.1823211  -0.1807039), wk =   0.0147738
        k(   85) = (  -0.4210526   0.1823211  -0.2409386), wk =   0.0147738
        k(   86) = (  -0.4736842   0.2127080   0.0000000), wk =   0.0073869
        k(   87) = (  -0.4736842   0.2127080  -0.0602346), wk =   0.0147738
        k(   88) = (  -0.4736842   0.2127080  -0.1204693), wk =   0.0147738
        k(   89) = (  -0.4736842   0.2127080  -0.1807039), wk =   0.0147738
        k(   90) = (  -0.4736842   0.2127080  -0.2409386), wk =   0.0147738
        k(   91) = (  -0.5263158   0.2430949   0.0000000), wk =   0.0036934
        k(   92) = (  -0.5263158   0.2430949  -0.0602346), wk =   0.0073869
        k(   93) = (  -0.5263158   0.2430949  -0.1204693), wk =   0.0073869
        k(   94) = (  -0.5263158   0.2430949  -0.1807039), wk =   0.0073869
        k(   95) = (  -0.5263158   0.2430949  -0.2409386), wk =   0.0073869
        k(   96) = (  -0.2105263   0.0000000   0.0000000), wk =   0.0036934
        k(   97) = (  -0.2105263   0.0000000  -0.0602346), wk =   0.0073869
        k(   98) = (  -0.2105263   0.0000000  -0.1204693), wk =   0.0073869
        k(   99) = (  -0.2105263   0.0000000  -0.1807039), wk =   0.0073869
        k(  100) = (  -0.2105263   0.0000000  -0.2409386), wk =   0.0073869
        k(  101) = (  -0.2631579   0.0303869   0.0000000), wk =   0.0073869
        k(  102) = (  -0.2631579   0.0303869  -0.0602346), wk =   0.0147738
        k(  103) = (  -0.2631579   0.0303869  -0.1204693), wk =   0.0147738
        k(  104) = (  -0.2631579   0.0303869  -0.1807039), wk =   0.0147738
        k(  105) = (  -0.2631579   0.0303869  -0.2409386), wk =   0.0147738
        k(  106) = (  -0.3157895   0.0607737   0.0000000), wk =   0.0073869
        k(  107) = (  -0.3157895   0.0607737  -0.0602346), wk =   0.0147738
        k(  108) = (  -0.3157895   0.0607737  -0.1204693), wk =   0.0147738
        k(  109) = (  -0.3157895   0.0607737  -0.1807039), wk =   0.0147738
        k(  110) = (  -0.3157895   0.0607737  -0.2409386), wk =   0.0147738
        k(  111) = (  -0.3684211   0.0911606   0.0000000), wk =   0.0073869
        k(  112) = (  -0.3684211   0.0911606  -0.0602346), wk =   0.0147738
        k(  113) = (  -0.3684211   0.0911606  -0.1204693), wk =   0.0147738
        k(  114) = (  -0.3684211   0.0911606  -0.1807039), wk =   0.0147738
        k(  115) = (  -0.3684211   0.0911606  -0.2409386), wk =   0.0147738
        k(  116) = (  -0.4210526   0.1215474   0.0000000), wk =   0.0073869
        k(  117) = (  -0.4210526   0.1215474  -0.0602346), wk =   0.0147738
        k(  118) = (  -0.4210526   0.1215474  -0.1204693), wk =   0.0147738
        k(  119) = (  -0.4210526   0.1215474  -0.1807039), wk =   0.0147738
        k(  120) = (  -0.4210526   0.1215474  -0.2409386), wk =   0.0147738
        k(  121) = (  -0.4736842   0.1519343   0.0000000), wk =   0.0073869
        k(  122) = (  -0.4736842   0.1519343  -0.0602346), wk =   0.0147738
        k(  123) = (  -0.4736842   0.1519343  -0.1204693), wk =   0.0147738
        k(  124) = (  -0.4736842   0.1519343  -0.1807039), wk =   0.0147738
        k(  125) = (  -0.4736842   0.1519343  -0.2409386), wk =   0.0147738
        k(  126) = (  -0.5263158   0.1823211   0.0000000), wk =   0.0073869
        k(  127) = (  -0.5263158   0.1823211  -0.0602346), wk =   0.0147738
        k(  128) = (  -0.5263158   0.1823211  -0.1204693), wk =   0.0147738
        k(  129) = (  -0.5263158   0.1823211  -0.1807039), wk =   0.0147738
        k(  130) = (  -0.5263158   0.1823211  -0.2409386), wk =   0.0147738
        k(  131) = (  -0.3157895  -0.0000000   0.0000000), wk =   0.0036934
        k(  132) = (  -0.3157895  -0.0000000  -0.0602346), wk =   0.0073869
        k(  133) = (  -0.3157895  -0.0000000  -0.1204693), wk =   0.0073869
        k(  134) = (  -0.3157895  -0.0000000  -0.1807039), wk =   0.0073869
        k(  135) = (  -0.3157895  -0.0000000  -0.2409386), wk =   0.0073869
        k(  136) = (  -0.3684211   0.0303869   0.0000000), wk =   0.0073869
        k(  137) = (  -0.3684211   0.0303869  -0.0602346), wk =   0.0147738
        k(  138) = (  -0.3684211   0.0303869  -0.1204693), wk =   0.0147738
        k(  139) = (  -0.3684211   0.0303869  -0.1807039), wk =   0.0147738
        k(  140) = (  -0.3684211   0.0303869  -0.2409386), wk =   0.0147738
        k(  141) = (  -0.4210526   0.0607737   0.0000000), wk =   0.0073869
        k(  142) = (  -0.4210526   0.0607737  -0.0602346), wk =   0.0147738
        k(  143) = (  -0.4210526   0.0607737  -0.1204693), wk =   0.0147738
        k(  144) = (  -0.4210526   0.0607737  -0.1807039), wk =   0.0147738
        k(  145) = (  -0.4210526   0.0607737  -0.2409386), wk =   0.0147738
        k(  146) = (  -0.4736842   0.0911606   0.0000000), wk =   0.0073869
        k(  147) = (  -0.4736842   0.0911606  -0.0602346), wk =   0.0147738
        k(  148) = (  -0.4736842   0.0911606  -0.1204693), wk =   0.0147738
        k(  149) = (  -0.4736842   0.0911606  -0.1807039), wk =   0.0147738
        k(  150) = (  -0.4736842   0.0911606  -0.2409386), wk =   0.0147738
        k(  151) = (  -0.5263158   0.1215474   0.0000000), wk =   0.0073869
        k(  152) = (  -0.5263158   0.1215474  -0.0602346), wk =   0.0147738
        k(  153) = (  -0.5263158   0.1215474  -0.1204693), wk =   0.0147738
        k(  154) = (  -0.5263158   0.1215474  -0.1807039), wk =   0.0147738
        k(  155) = (  -0.5263158   0.1215474  -0.2409386), wk =   0.0147738
        k(  156) = (  -0.5789474   0.1519343   0.0000000), wk =   0.0036934
        k(  157) = (  -0.5789474   0.1519343  -0.0602346), wk =   0.0073869
        k(  158) = (  -0.5789474   0.1519343  -0.1204693), wk =   0.0073869
        k(  159) = (  -0.5789474   0.1519343  -0.1807039), wk =   0.0073869
        k(  160) = (  -0.5789474   0.1519343  -0.2409386), wk =   0.0073869
        k(  161) = (  -0.4210526   0.0000000   0.0000000), wk =   0.0036934
        k(  162) = (  -0.4210526   0.0000000  -0.0602346), wk =   0.0073869
        k(  163) = (  -0.4210526   0.0000000  -0.1204693), wk =   0.0073869
        k(  164) = (  -0.4210526   0.0000000  -0.1807039), wk =   0.0073869
        k(  165) = (  -0.4210526   0.0000000  -0.2409386), wk =   0.0073869
        k(  166) = (  -0.4736842   0.0303869   0.0000000), wk =   0.0073869
        k(  167) = (  -0.4736842   0.0303869  -0.0602346), wk =   0.0147738
        k(  168) = (  -0.4736842   0.0303869  -0.1204693), wk =   0.0147738
        k(  169) = (  -0.4736842   0.0303869  -0.1807039), wk =   0.0147738
        k(  170) = (  -0.4736842   0.0303869  -0.2409386), wk =   0.0147738
        k(  171) = (  -0.5263158   0.0607737   0.0000000), wk =   0.0073869
        k(  172) = (  -0.5263158   0.0607737  -0.0602346), wk =   0.0147738
        k(  173) = (  -0.5263158   0.0607737  -0.1204693), wk =   0.0147738
        k(  174) = (  -0.5263158   0.0607737  -0.1807039), wk =   0.0147738
        k(  175) = (  -0.5263158   0.0607737  -0.2409386), wk =   0.0147738
        k(  176) = (  -0.5789474   0.0911606   0.0000000), wk =   0.0073869
        k(  177) = (  -0.5789474   0.0911606  -0.0602346), wk =   0.0147738
        k(  178) = (  -0.5789474   0.0911606  -0.1204693), wk =   0.0147738
        k(  179) = (  -0.5789474   0.0911606  -0.1807039), wk =   0.0147738
        k(  180) = (  -0.5789474   0.0911606  -0.2409386), wk =   0.0147738
        k(  181) = (  -0.5263158  -0.0000000   0.0000000), wk =   0.0036934
        k(  182) = (  -0.5263158  -0.0000000  -0.0602346), wk =   0.0073869
        k(  183) = (  -0.5263158  -0.0000000  -0.1204693), wk =   0.0073869
        k(  184) = (  -0.5263158  -0.0000000  -0.1807039), wk =   0.0073869
        k(  185) = (  -0.5263158  -0.0000000  -0.2409386), wk =   0.0073869
        k(  186) = (  -0.5789474   0.0303869   0.0000000), wk =   0.0073869
        k(  187) = (  -0.5789474   0.0303869  -0.0602346), wk =   0.0147738
        k(  188) = (  -0.5789474   0.0303869  -0.1204693), wk =   0.0147738
        k(  189) = (  -0.5789474   0.0303869  -0.1807039), wk =   0.0147738
        k(  190) = (  -0.5789474   0.0303869  -0.2409386), wk =   0.0147738
        k(  191) = (  -0.6315789   0.0607737   0.0000000), wk =   0.0036934
        k(  192) = (  -0.6315789   0.0607737  -0.0602346), wk =   0.0073869
        k(  193) = (  -0.6315789   0.0607737  -0.1204693), wk =   0.0073869
        k(  194) = (  -0.6315789   0.0607737  -0.1807039), wk =   0.0073869
        k(  195) = (  -0.6315789   0.0607737  -0.2409386), wk =   0.0073869
        k(  196) = (  -0.6315789  -0.0000000   0.0000000), wk =   0.0036934
        k(  197) = (  -0.6315789  -0.0000000  -0.0602346), wk =   0.0073869
        k(  198) = (  -0.6315789  -0.0000000  -0.1204693), wk =   0.0073869
        k(  199) = (  -0.6315789  -0.0000000  -0.1807039), wk =   0.0073869
        k(  200) = (  -0.6315789  -0.0000000  -0.2409386), wk =   0.0073869

                       cryst. coord.
        k(    1) = (   0.0000000   0.0000000   0.0000000), wk =   0.0006156
        k(    2) = (  -0.0000000   0.0000000   0.1111111), wk =   0.0012311
        k(    3) = (  -0.0000000   0.0000000   0.2222222), wk =   0.0012311
        k(    4) = (  -0.0000000   0.0000000   0.3333333), wk =   0.0012311
        k(    5) = (  -0.0000000   0.0000000   0.4444444), wk =   0.0012311
        k(    6) = (   0.0000000   0.0526316   0.0000000), wk =   0.0036934
        k(    7) = (   0.0000000   0.0526316   0.1111111), wk =   0.0073869
        k(    8) = (   0.0000000   0.0526316   0.2222222), wk =   0.0073869
        k(    9) = (   0.0000000   0.0526316   0.3333333), wk =   0.0073869
        k(   10) = (   0.0000000   0.0526316   0.4444444), wk =   0.0073869
        k(   11) = (   0.0000000   0.1052632   0.0000000), wk =   0.0036934
        k(   12) = (   0.0000000   0.1052632   0.1111111), wk =   0.0073869
        k(   13) = (   0.0000000   0.1052632   0.2222222), wk =   0.0073869
        k(   14) = (   0.0000000   0.1052632   0.3333333), wk =   0.0073869
        k(   15) = (   0.0000000   0.1052632   0.4444444), wk =   0.0073869
        k(   16) = (   0.0000000   0.1578947   0.0000000), wk =   0.0036934
        k(   17) = (   0.0000000   0.1578947   0.1111111), wk =   0.0073869
        k(   18) = (   0.0000000   0.1578947   0.2222222), wk =   0.0073869
        k(   19) = (   0.0000000   0.1578947   0.3333333), wk =   0.0073869
        k(   20) = (   0.0000000   0.1578947   0.4444444), wk =   0.0073869
        k(   21) = (   0.0000000   0.2105263   0.0000000), wk =   0.0036934
        k(   22) = (   0.0000000   0.2105263   0.1111111), wk =   0.0073869
        k(   23) = (   0.0000000   0.2105263   0.2222222), wk =   0.0073869
        k(   24) = (   0.0000000   0.2105263   0.3333333), wk =   0.0073869
        k(   25) = (   0.0000000   0.2105263   0.4444444), wk =   0.0073869
        k(   26) = (  -0.0000000   0.2631579   0.0000000), wk =   0.0036934
        k(   27) = (  -0.0000000   0.2631579   0.1111111), wk =   0.0073869
        k(   28) = (  -0.0000000   0.2631579   0.2222222), wk =   0.0073869
        k(   29) = (  -0.0000000   0.2631579   0.3333333), wk =   0.0073869
        k(   30) = (  -0.0000000   0.2631579   0.4444444), wk =   0.0073869
        k(   31) = (   0.0000000   0.3157895   0.0000000), wk =   0.0036934
        k(   32) = (   0.0000000   0.3157895   0.1111111), wk =   0.0073869
        k(   33) = (   0.0000000   0.3157895   0.2222222), wk =   0.0073869
        k(   34) = (   0.0000000   0.3157895   0.3333333), wk =   0.0073869
        k(   35) = (   0.0000000   0.3157895   0.4444444), wk =   0.0073869
        k(   36) = (   0.0000000   0.3684211   0.0000000), wk =   0.0036934
        k(   37) = (   0.0000000   0.3684211   0.1111111), wk =   0.0073869
        k(   38) = (   0.0000000   0.3684211   0.2222222), wk =   0.0073869
        k(   39) = (   0.0000000   0.3684211   0.3333333), wk =   0.0073869
        k(   40) = (   0.0000000   0.3684211   0.4444444), wk =   0.0073869
        k(   41) = (   0.0000000   0.4210526   0.0000000), wk =   0.0036934
        k(   42) = (   0.0000000   0.4210526   0.1111111), wk =   0.0073869
        k(   43) = (   0.0000000   0.4210526   0.2222222), wk =   0.0073869
        k(   44) = (   0.0000000   0.4210526   0.3333333), wk =   0.0073869
        k(   45) = (   0.0000000   0.4210526   0.4444444), wk =   0.0073869
        k(   46) = (   0.0000000   0.4736842   0.0000000), wk =   0.0036934
        k(   47) = (   0.0000000   0.4736842   0.1111111), wk =   0.0073869
        k(   48) = (   0.0000000   0.4736842   0.2222222), wk =   0.0073869
        k(   49) = (   0.0000000   0.4736842   0.3333333), wk =   0.0073869
        k(   50) = (   0.0000000   0.4736842   0.4444444), wk =   0.0073869
        k(   51) = (   0.0526316   0.0526316   0.0000000), wk =   0.0036934
        k(   52) = (   0.0526316   0.0526316   0.1111111), wk =   0.0073869
        k(   53) = (   0.0526316   0.0526316   0.2222222), wk =   0.0073869
        k(   54) = (   0.0526316   0.0526316   0.3333333), wk =   0.0073869
        k(   55) = (   0.0526316   0.0526316   0.4444444), wk =   0.0073869
        k(   56) = (   0.0526316   0.1052632   0.0000000), wk =   0.0073869
        k(   57) = (   0.0526316   0.1052632   0.1111111), wk =   0.0147738
        k(   58) = (   0.0526316   0.1052632   0.2222222), wk =   0.0147738
        k(   59) = (   0.0526316   0.1052632   0.3333333), wk =   0.0147738
        k(   60) = (   0.0526316   0.1052632   0.4444444), wk =   0.0147738
        k(   61) = (   0.0526316   0.1578947   0.0000000), wk =   0.0073869
        k(   62) = (   0.0526316   0.1578947   0.1111111), wk =   0.0147738
        k(   63) = (   0.0526316   0.1578947   0.2222222), wk =   0.0147738
        k(   64) = (   0.0526316   0.1578947   0.3333333), wk =   0.0147738
        k(   65) = (   0.0526316   0.1578947   0.4444444), wk =   0.0147738
        k(   66) = (   0.0526316   0.2105263   0.0000000), wk =   0.0073869
        k(   67) = (   0.0526316   0.2105263   0.1111111), wk =   0.0147738
        k(   68) = (   0.0526316   0.2105263   0.2222222), wk =   0.0147738
        k(   69) = (   0.0526316   0.2105263   0.3333333), wk =   0.0147738
        k(   70) = (   0.0526316   0.2105263   0.4444444), wk =   0.0147738
        k(   71) = (   0.0526316   0.2631579   0.0000000), wk =   0.0073869
        k(   72) = (   0.0526316   0.2631579   0.1111111), wk =   0.0147738
        k(   73) = (   0.0526316   0.2631579   0.2222222), wk =   0.0147738
        k(   74) = (   0.0526316   0.2631579   0.3333333), wk =   0.0147738
        k(   75) = (   0.0526316   0.2631579   0.4444444), wk =   0.0147738
        k(   76) = (   0.0526316   0.3157895   0.0000000), wk =   0.0073869
        k(   77) = (   0.0526316   0.3157895   0.1111111), wk =   0.0147738
        k(   78) = (   0.0526316   0.3157895   0.2222222), wk =   0.0147738
        k(   79) = (   0.0526316   0.3157895   0.3333333), wk =   0.0147738
        k(   80) = (   0.0526316   0.3157895   0.4444444), wk =   0.0147738
        k(   81) = (   0.0526316   0.3684211   0.0000000), wk =   0.0073869
        k(   82) = (   0.0526316   0.3684211   0.1111111), wk =   0.0147738
        k(   83) = (   0.0526316   0.3684211   0.2222222), wk =   0.0147738
        k(   84) = (   0.0526316   0.3684211   0.3333333), wk =   0.0147738
        k(   85) = (   0.0526316   0.3684211   0.4444444), wk =   0.0147738
        k(   86) = (   0.0526316   0.4210526   0.0000000), wk =   0.0073869
        k(   87) = (   0.0526316   0.4210526   0.1111111), wk =   0.0147738
        k(   88) = (   0.0526316   0.4210526   0.2222222), wk =   0.0147738
        k(   89) = (   0.0526316   0.4210526   0.3333333), wk =   0.0147738
        k(   90) = (   0.0526316   0.4210526   0.4444444), wk =   0.0147738
        k(   91) = (   0.0526316   0.4736842   0.0000000), wk =   0.0036934
        k(   92) = (   0.0526316   0.4736842   0.1111111), wk =   0.0073869
        k(   93) = (   0.0526316   0.4736842   0.2222222), wk =   0.0073869
        k(   94) = (   0.0526316   0.4736842   0.3333333), wk =   0.0073869
        k(   95) = (   0.0526316   0.4736842   0.4444444), wk =   0.0073869
        k(   96) = (   0.1052632   0.1052632   0.0000000), wk =   0.0036934
        k(   97) = (   0.1052632   0.1052632   0.1111111), wk =   0.0073869
        k(   98) = (   0.1052632   0.1052632   0.2222222), wk =   0.0073869
        k(   99) = (   0.1052632   0.1052632   0.3333333), wk =   0.0073869
        k(  100) = (   0.1052632   0.1052632   0.4444444), wk =   0.0073869
        k(  101) = (   0.1052632   0.1578947   0.0000000), wk =   0.0073869
        k(  102) = (   0.1052632   0.1578947   0.1111111), wk =   0.0147738
        k(  103) = (   0.1052632   0.1578947   0.2222222), wk =   0.0147738
        k(  104) = (   0.1052632   0.1578947   0.3333333), wk =   0.0147738
        k(  105) = (   0.1052632   0.1578947   0.4444444), wk =   0.0147738
        k(  106) = (   0.1052632   0.2105263   0.0000000), wk =   0.0073869
        k(  107) = (   0.1052632   0.2105263   0.1111111), wk =   0.0147738
        k(  108) = (   0.1052632   0.2105263   0.2222222), wk =   0.0147738
        k(  109) = (   0.1052632   0.2105263   0.3333333), wk =   0.0147738
        k(  110) = (   0.1052632   0.2105263   0.4444444), wk =   0.0147738
        k(  111) = (   0.1052632   0.2631579   0.0000000), wk =   0.0073869
        k(  112) = (   0.1052632   0.2631579   0.1111111), wk =   0.0147738
        k(  113) = (   0.1052632   0.2631579   0.2222222), wk =   0.0147738
        k(  114) = (   0.1052632   0.2631579   0.3333333), wk =   0.0147738
        k(  115) = (   0.1052632   0.2631579   0.4444444), wk =   0.0147738
        k(  116) = (   0.1052632   0.3157895   0.0000000), wk =   0.0073869
        k(  117) = (   0.1052632   0.3157895   0.1111111), wk =   0.0147738
        k(  118) = (   0.1052632   0.3157895   0.2222222), wk =   0.0147738
        k(  119) = (   0.1052632   0.3157895   0.3333333), wk =   0.0147738
        k(  120) = (   0.1052632   0.3157895   0.4444444), wk =   0.0147738
        k(  121) = (   0.1052632   0.3684211   0.0000000), wk =   0.0073869
        k(  122) = (   0.1052632   0.3684211   0.1111111), wk =   0.0147738
        k(  123) = (   0.1052632   0.3684211   0.2222222), wk =   0.0147738
        k(  124) = (   0.1052632   0.3684211   0.3333333), wk =   0.0147738
        k(  125) = (   0.1052632   0.3684211   0.4444444), wk =   0.0147738
        k(  126) = (   0.1052632   0.4210526   0.0000000), wk =   0.0073869
        k(  127) = (   0.1052632   0.4210526   0.1111111), wk =   0.0147738
        k(  128) = (   0.1052632   0.4210526   0.2222222), wk =   0.0147738
        k(  129) = (   0.1052632   0.4210526   0.3333333), wk =   0.0147738
        k(  130) = (   0.1052632   0.4210526   0.4444444), wk =   0.0147738
        k(  131) = (   0.1578947   0.1578947   0.0000000), wk =   0.0036934
        k(  132) = (   0.1578947   0.1578947   0.1111111), wk =   0.0073869
        k(  133) = (   0.1578947   0.1578947   0.2222222), wk =   0.0073869
        k(  134) = (   0.1578947   0.1578947   0.3333333), wk =   0.0073869
        k(  135) = (   0.1578947   0.1578947   0.4444444), wk =   0.0073869
        k(  136) = (   0.1578947   0.2105263   0.0000000), wk =   0.0073869
        k(  137) = (   0.1578947   0.2105263   0.1111111), wk =   0.0147738
        k(  138) = (   0.1578947   0.2105263   0.2222222), wk =   0.0147738
        k(  139) = (   0.1578947   0.2105263   0.3333333), wk =   0.0147738
        k(  140) = (   0.1578947   0.2105263   0.4444444), wk =   0.0147738
        k(  141) = (   0.1578947   0.2631579   0.0000000), wk =   0.0073869
        k(  142) = (   0.1578947   0.2631579   0.1111111), wk =   0.0147738
        k(  143) = (   0.1578947   0.2631579   0.2222222), wk =   0.0147738
        k(  144) = (   0.1578947   0.2631579   0.3333333), wk =   0.0147738
        k(  145) = (   0.1578947   0.2631579   0.4444444), wk =   0.0147738
        k(  146) = (   0.1578947   0.3157895   0.0000000), wk =   0.0073869
        k(  147) = (   0.1578947   0.3157895   0.1111111), wk =   0.0147738
        k(  148) = (   0.1578947   0.3157895   0.2222222), wk =   0.0147738
        k(  149) = (   0.1578947   0.3157895   0.3333333), wk =   0.0147738
        k(  150) = (   0.1578947   0.3157895   0.4444444), wk =   0.0147738
        k(  151) = (   0.1578947   0.3684211   0.0000000), wk =   0.0073869
        k(  152) = (   0.1578947   0.3684211   0.1111111), wk =   0.0147738
        k(  153) = (   0.1578947   0.3684211   0.2222222), wk =   0.0147738
        k(  154) = (   0.1578947   0.3684211   0.3333333), wk =   0.0147738
        k(  155) = (   0.1578947   0.3684211   0.4444444), wk =   0.0147738
        k(  156) = (   0.1578947   0.4210526   0.0000000), wk =   0.0036934
        k(  157) = (   0.1578947   0.4210526   0.1111111), wk =   0.0073869
        k(  158) = (   0.1578947   0.4210526   0.2222222), wk =   0.0073869
        k(  159) = (   0.1578947   0.4210526   0.3333333), wk =   0.0073869
        k(  160) = (   0.1578947   0.4210526   0.4444444), wk =   0.0073869
        k(  161) = (   0.2105263   0.2105263   0.0000000), wk =   0.0036934
        k(  162) = (   0.2105263   0.2105263   0.1111111), wk =   0.0073869
        k(  163) = (   0.2105263   0.2105263   0.2222222), wk =   0.0073869
        k(  164) = (   0.2105263   0.2105263   0.3333333), wk =   0.0073869
        k(  165) = (   0.2105263   0.2105263   0.4444444), wk =   0.0073869
        k(  166) = (   0.2105263   0.2631579   0.0000000), wk =   0.0073869
        k(  167) = (   0.2105263   0.2631579   0.1111111), wk =   0.0147738
        k(  168) = (   0.2105263   0.2631579   0.2222222), wk =   0.0147738
        k(  169) = (   0.2105263   0.2631579   0.3333333), wk =   0.0147738
        k(  170) = (   0.2105263   0.2631579   0.4444444), wk =   0.0147738
        k(  171) = (   0.2105263   0.3157895   0.0000000), wk =   0.0073869
        k(  172) = (   0.2105263   0.3157895   0.1111111), wk =   0.0147738
        k(  173) = (   0.2105263   0.3157895   0.2222222), wk =   0.0147738
        k(  174) = (   0.2105263   0.3157895   0.3333333), wk =   0.0147738
        k(  175) = (   0.2105263   0.3157895   0.4444444), wk =   0.0147738
        k(  176) = (   0.2105263   0.3684211   0.0000000), wk =   0.0073869
        k(  177) = (   0.2105263   0.3684211   0.1111111), wk =   0.0147738
        k(  178) = (   0.2105263   0.3684211   0.2222222), wk =   0.0147738
        k(  179) = (   0.2105263   0.3684211   0.3333333), wk =   0.0147738
        k(  180) = (   0.2105263   0.3684211   0.4444444), wk =   0.0147738
        k(  181) = (   0.2631579   0.2631579   0.0000000), wk =   0.0036934
        k(  182) = (   0.2631579   0.2631579   0.1111111), wk =   0.0073869
        k(  183) = (   0.2631579   0.2631579   0.2222222), wk =   0.0073869
        k(  184) = (   0.2631579   0.2631579   0.3333333), wk =   0.0073869
        k(  185) = (   0.2631579   0.2631579   0.4444444), wk =   0.0073869
        k(  186) = (   0.2631579   0.3157895   0.0000000), wk =   0.0073869
        k(  187) = (   0.2631579   0.3157895   0.1111111), wk =   0.0147738
        k(  188) = (   0.2631579   0.3157895   0.2222222), wk =   0.0147738
        k(  189) = (   0.2631579   0.3157895   0.3333333), wk =   0.0147738
        k(  190) = (   0.2631579   0.3157895   0.4444444), wk =   0.0147738
        k(  191) = (   0.2631579   0.3684211   0.0000000), wk =   0.0036934
        k(  192) = (   0.2631579   0.3684211   0.1111111), wk =   0.0073869
        k(  193) = (   0.2631579   0.3684211   0.2222222), wk =   0.0073869
        k(  194) = (   0.2631579   0.3684211   0.3333333), wk =   0.0073869
        k(  195) = (   0.2631579   0.3684211   0.4444444), wk =   0.0073869
        k(  196) = (   0.3157895   0.3157895   0.0000000), wk =   0.0036934
        k(  197) = (   0.3157895   0.3157895   0.1111111), wk =   0.0073869
        k(  198) = (   0.3157895   0.3157895   0.2222222), wk =   0.0073869
        k(  199) = (   0.3157895   0.3157895   0.3333333), wk =   0.0073869
        k(  200) = (   0.3157895   0.3157895   0.4444444), wk =   0.0073869

     Dense  grid:    19631 G-vectors     FFT dimensions: (  30,  30,  54)

     Smooth grid:     6967 G-vectors     FFT dimensions: (  24,  24,  40)

     Dynamical RAM for                 wfc:       0.16 MB

     Dynamical RAM for     wfc (w. buffer):      31.95 MB

     Dynamical RAM for           str. fact:       0.15 MB

     Dynamical RAM for           local pot:       0.00 MB

     Dynamical RAM for          nlocal pot:       0.24 MB

     Dynamical RAM for                qrad:       1.44 MB

     Dynamical RAM for          rho,v,vnew:       1.01 MB

     Dynamical RAM for               rhoin:       0.34 MB

     Dynamical RAM for            rho*nmix:       2.40 MB

     Dynamical RAM for           G-vectors:       0.59 MB

     Dynamical RAM for          h,s,v(r/c):       0.11 MB

     Dynamical RAM for          <psi|beta>:       0.01 MB

     Dynamical RAM for                 psi:       0.32 MB

     Dynamical RAM for                hpsi:       0.32 MB

     Dynamical RAM for                spsi:       0.32 MB

     Dynamical RAM for      wfcinit/wfcrot:       0.33 MB

     Dynamical RAM for           addusdens:      28.16 MB

     Dynamical RAM for          addusforce:      28.55 MB

     Dynamical RAM for         addusstress:      30.11 MB

     Estimated static dynamical RAM per process >      36.93 MB

     Estimated max dynamical RAM per process >      69.43 MB

     Estimated total dynamical RAM >     138.87 MB

     Initial potential from superposition of free atoms

     starting charge      39.9997, renormalised to      40.0000
     Starting wfcs are   26 randomized atomic wfcs

     total cpu time spent up to now is        5.7 secs

     Self-consistent Calculation
[tb_dev] Currently allocated     6.24E-01 Mbytes, locked:    0 /   6
[tb_pin] Currently allocated     0.00E+00 Mbytes, locked:    0 /   0

     iteration #  1     ecut=    40.00 Ry     beta= 0.40
     Davidson diagonalization with overlap

---- Real-time Memory Report at c_bands before calling an iterative solver
           628 MiB given to the printing process from OS
             0 MiB allocation reported by mallinfo(arena+hblkhd)
         27841 MiB available memory on the node where the printing process lives
     GPU memory used/free/total (MiB): 663 / 11265 / 11928
------------------
     ethr =  1.00E-02,  avg # of iterations =  2.8

     Threshold (ethr) on eigenvalues was too large:
     Diagonalizing with lowered threshold

     Davidson diagonalization with overlap

---- Real-time Memory Report at c_bands before calling an iterative solver
           644 MiB given to the printing process from OS
             0 MiB allocation reported by mallinfo(arena+hblkhd)
         27802 MiB available memory on the node where the printing process lives
     GPU memory used/free/total (MiB): 663 / 11265 / 11928
------------------
     ethr =  1.70E-04,  avg # of iterations =  2.8

     total cpu time spent up to now is       35.2 secs

     total energy              =    -923.08814758 Ry
     estimated scf accuracy    <       0.06612297 Ry
[tb_dev] Currently allocated     1.53E-05 Mbytes, locked:    0 /   2
[tb_pin] Currently allocated     0.00E+00 Mbytes, locked:    0 /   0

     iteration #  2     ecut=    40.00 Ry     beta= 0.40
     Davidson diagonalization with overlap

---- Real-time Memory Report at c_bands before calling an iterative solver
           645 MiB given to the printing process from OS
             0 MiB allocation reported by mallinfo(arena+hblkhd)
         27802 MiB available memory on the node where the printing process lives
     GPU memory used/free/total (MiB): 665 / 11263 / 11928
------------------
     ethr =  1.65E-04,  avg # of iterations =  2.0

     total cpu time spent up to now is       49.0 secs

     total energy              =    -923.10444013 Ry
     estimated scf accuracy    <       0.01262377 Ry
[tb_dev] Currently allocated     1.53E-05 Mbytes, locked:    0 /   2
[tb_pin] Currently allocated     0.00E+00 Mbytes, locked:    0 /   0

     iteration #  3     ecut=    40.00 Ry     beta= 0.40
     Davidson diagonalization with overlap

---- Real-time Memory Report at c_bands before calling an iterative solver
           646 MiB given to the printing process from OS
             0 MiB allocation reported by mallinfo(arena+hblkhd)
         27789 MiB available memory on the node where the printing process lives
     GPU memory used/free/total (MiB): 665 / 11263 / 11928
------------------
     ethr =  3.16E-05,  avg # of iterations =  2.2

     total cpu time spent up to now is       63.0 secs

     total energy              =    -923.10549882 Ry
     estimated scf accuracy    <       0.00189348 Ry
[tb_dev] Currently allocated     1.53E-05 Mbytes, locked:    0 /   2
[tb_pin] Currently allocated     0.00E+00 Mbytes, locked:    0 /   0

     iteration #  4     ecut=    40.00 Ry     beta= 0.40
     Davidson diagonalization with overlap

---- Real-time Memory Report at c_bands before calling an iterative solver
           647 MiB given to the printing process from OS
             0 MiB allocation reported by mallinfo(arena+hblkhd)
         27797 MiB available memory on the node where the printing process lives
     GPU memory used/free/total (MiB): 665 / 11263 / 11928
------------------
     ethr =  4.73E-06,  avg # of iterations =  1.9

     total cpu time spent up to now is       75.7 secs

     total energy              =    -923.10552944 Ry
     estimated scf accuracy    <       0.00011391 Ry
[tb_dev] Currently allocated     1.53E-05 Mbytes, locked:    0 /   2
[tb_pin] Currently allocated     0.00E+00 Mbytes, locked:    0 /   0

     iteration #  5     ecut=    40.00 Ry     beta= 0.40
     Davidson diagonalization with overlap

---- Real-time Memory Report at c_bands before calling an iterative solver
           647 MiB given to the printing process from OS
             0 MiB allocation reported by mallinfo(arena+hblkhd)
         27811 MiB available memory on the node where the printing process lives
     GPU memory used/free/total (MiB): 665 / 11263 / 11928
------------------
     ethr =  2.85E-07,  avg # of iterations =  2.3

     total cpu time spent up to now is       91.2 secs

     total energy              =    -923.10557509 Ry
     estimated scf accuracy    <       0.00008731 Ry
[tb_dev] Currently allocated     1.53E-05 Mbytes, locked:    0 /   2
[tb_pin] Currently allocated     0.00E+00 Mbytes, locked:    0 /   0

     iteration #  6     ecut=    40.00 Ry     beta= 0.40
     Davidson diagonalization with overlap

---- Real-time Memory Report at c_bands before calling an iterative solver
           647 MiB given to the printing process from OS
             0 MiB allocation reported by mallinfo(arena+hblkhd)
         27807 MiB available memory on the node where the printing process lives
     GPU memory used/free/total (MiB): 665 / 11263 / 11928
------------------
     ethr =  2.18E-07,  avg # of iterations =  2.0

     total cpu time spent up to now is      105.0 secs

     total energy              =    -923.10558606 Ry
     estimated scf accuracy    <       0.00000239 Ry
[tb_dev] Currently allocated     1.53E-05 Mbytes, locked:    0 /   2
[tb_pin] Currently allocated     0.00E+00 Mbytes, locked:    0 /   0

     iteration #  7     ecut=    40.00 Ry     beta= 0.40
     Davidson diagonalization with overlap

---- Real-time Memory Report at c_bands before calling an iterative solver
           648 MiB given to the printing process from OS
             0 MiB allocation reported by mallinfo(arena+hblkhd)
         27813 MiB available memory on the node where the printing process lives
     GPU memory used/free/total (MiB): 665 / 11263 / 11928
------------------
     ethr =  5.98E-09,  avg # of iterations =  2.0

     total cpu time spent up to now is      118.3 secs

     total energy              =    -923.10558617 Ry
     estimated scf accuracy    <       0.00000036 Ry
[tb_dev] Currently allocated     1.53E-05 Mbytes, locked:    0 /   2
[tb_pin] Currently allocated     0.00E+00 Mbytes, locked:    0 /   0

     iteration #  8     ecut=    40.00 Ry     beta= 0.40
     Davidson diagonalization with overlap

---- Real-time Memory Report at c_bands before calling an iterative solver
           648 MiB given to the printing process from OS
             0 MiB allocation reported by mallinfo(arena+hblkhd)
         27811 MiB available memory on the node where the printing process lives
     GPU memory used/free/total (MiB): 665 / 11263 / 11928
------------------
     ethr =  8.89E-10,  avg # of iterations =  2.0

     total cpu time spent up to now is      134.0 secs

     total energy              =    -923.10558621 Ry
     estimated scf accuracy    <       0.00000002 Ry
[tb_dev] Currently allocated     1.53E-05 Mbytes, locked:    0 /   2
[tb_pin] Currently allocated     0.00E+00 Mbytes, locked:    0 /   0

     iteration #  9     ecut=    40.00 Ry     beta= 0.40
     Davidson diagonalization with overlap

---- Real-time Memory Report at c_bands before calling an iterative solver
           648 MiB given to the printing process from OS
             0 MiB allocation reported by mallinfo(arena+hblkhd)
         26864 MiB available memory on the node where the printing process lives
     GPU memory used/free/total (MiB): 1323 / 10605 / 11928
------------------
     ethr =  4.97E-11,  avg # of iterations =  2.1

     total cpu time spent up to now is      162.7 secs

     total energy              =    -923.10558622 Ry
     estimated scf accuracy    <          3.8E-09 Ry
[tb_dev] Currently allocated     1.53E-05 Mbytes, locked:    0 /   2
[tb_pin] Currently allocated     0.00E+00 Mbytes, locked:    0 /   0

     iteration # 10     ecut=    40.00 Ry     beta= 0.40
     Davidson diagonalization with overlap

---- Real-time Memory Report at c_bands before calling an iterative solver
           648 MiB given to the printing process from OS
             0 MiB allocation reported by mallinfo(arena+hblkhd)
         26862 MiB available memory on the node where the printing process lives
     GPU memory used/free/total (MiB): 1325 / 10603 / 11928
------------------
     ethr =  9.60E-12,  avg # of iterations =  2.0

     total cpu time spent up to now is      190.2 secs

     End of self-consistent calculation

          k = 0.0000 0.0000 0.0000 (   871 PWs)   bands (ev):

  -112.9181-112.9170 -67.0776 -67.0644 -67.0527 -67.0527 -67.0512 -67.0512
     3.2105   5.0856   5.8013   6.0266   6.0266   6.0794   6.0794   6.4044
     6.4044   6.6238   6.6238  10.0355  10.7490  27.5566  31.0864  31.0864

     occupation numbers 
     1.0000   1.0000   1.0000   1.0000   1.0000   1.0000   1.0000   1.0000
     1.0000   1.0000   1.0000   1.0000   1.0000   1.0000   1.0000   1.0000
     1.0000   1.0000   1.0000   1.0000   1.0000   0.0000   0.0000   0.0000

          k = 0.0000 0.0000-0.0602 (   853 PWs)   bands (ev):

  -112.9180-112.9171 -67.0772 -67.0648 -67.0527 -67.0527 -67.0512 -67.0512
     3.2868   5.0780   5.8020   6.0254   6.0254   6.0757   6.0757   6.4139
     6.4139   6.6193   6.6193   8.9868  11.9633  26.2015  31.1632  31.1632

     occupation numbers 
     1.0000   1.0000   1.0000   1.0000   1.0000   1.0000   1.0000   1.0000
     1.0000   1.0000   1.0000   1.0000   1.0000   1.0000   1.0000   1.0000
     1.0000   1.0000   1.0000   1.0000   1.0000   0.0000   0.0000   0.0000

          k = 0.0000 0.0000-0.1205 (   865 PWs)   bands (ev):

  -112.9179-112.9172 -67.0761 -67.0660 -67.0525 -67.0525 -67.0513 -67.0513
     3.5116   5.0450   5.8093   6.0233   6.0233   6.0658   6.0658   6.4397
     6.4397   6.6057   6.6057   7.8322  13.6235  23.9661  31.3888  31.3888

     occupation numbers 
     1.0000   1.0000   1.0000   1.0000   1.0000   1.0000   1.0000   1.0000
     1.0000   1.0000   1.0000   1.0000   1.0000   1.0000   1.0000   1.0000
     1.0000   1.0000   1.0000   1.0000   0.7012   0.0000   0.0000   0.0000

          k = 0.0000 0.0000-0.1807 (   853 PWs)   bands (ev):

  -112.9178-112.9173 -67.0744 -67.0677 -67.0523 -67.0523 -67.0516 -67.0516
     3.8673   4.9482   5.8421   6.0236   6.0236   6.0523   6.0523   6.4756
     6.4756   6.5830   6.5830   6.8927  15.4427  21.6885  31.7460  31.7460

     occupation numbers 
     1.0000   1.0000   1.0000   1.0000   1.0000   1.0000   1.0000   1.0000
     1.0000   1.0000   1.0000   1.0000   1.0000   1.0000   1.0000   1.0000
     1.0000   1.0000   1.0000   1.0000   0.0000   0.0000   0.0000   0.0000

          k = 0.0000 0.0000-0.2409 (   858 PWs)   bands (ev):

  -112.9176-112.9175 -67.0722 -67.0699 -67.0521 -67.0521 -67.0518 -67.0518
     4.3055   4.7093   5.9519   6.0288   6.0288   6.0389   6.0389   6.2580
     6.5149   6.5149   6.5520   6.5520  17.4020  19.4893  32.1898  32.1900

     occupation numbers 
     1.0000   1.0000   1.0000   1.0000   1.0000   1.0000   1.0000   1.0000
     1.0000   1.0000   1.0000   1.0000   1.0000   1.0000   1.0000   1.0000
     1.0000   1.0000   1.0000   1.0000   0.0000   0.0000   0.0000   0.0000

          k =-0.0526 0.0304 0.0000 (   857 PWs)   bands (ev):

  -112.9180-112.9170 -67.0775 -67.0644 -67.0535 -67.0529 -67.0519 -67.0514
     3.2930   5.1218   5.8096   6.0185   6.0462   6.0702   6.0979   6.3872
     6.3965   6.5747   6.6250  10.1697  10.7914  27.6473  29.4450  30.2396

     occupation numbers 
     1.0000   1.0000   1.0000   1.0000   1.0000   1.0000   1.0000   1.0000
     1.0000   1.0000   1.0000   1.0000   1.0000   1.0000   1.0000   1.0000
     1.0000   1.0000   1.0000   1.0000   1.0000   0.0000   0.0000   0.0000

          k =-0.0526 0.0304-0.0602 (   854 PWs)   bands (ev):

  -112.9179-112.9170 -67.0771 -67.0648 -67.0534 -67.0529 -67.0520 -67.0514
     3.3691   5.1155   5.8100   6.0165   6.0447   6.0661   6.0942   6.3983
     6.4064   6.5671   6.6202   9.0902  12.0385  26.2797  29.5383  30.3189

     occupation numbers 
     1.0000   1.0000   1.0000   1.0000   1.0000   1.0000   1.0000   1.0000
     1.0000   1.0000   1.0000   1.0000   1.0000   1.0000   1.0000   1.0000
     1.0000   1.0000   1.0000   1.0000   1.0000   0.0000   0.0000   0.0000

          k =-0.0526 0.0304-0.1205 (   853 PWs)   bands (ev):

  -112.9179-112.9171 -67.0760 -67.0659 -67.0533 -67.0527 -67.0521 -67.0515
     3.5929   5.0869   5.8156   6.0127   6.0423   6.0549   6.0841   6.4285
     6.4333   6.5408   6.6059   7.9416  13.7015  24.0416  29.7695  30.5548

     occupation numbers 
     1.0000   1.0000   1.0000   1.0000   1.0000   1.0000   1.0000   1.0000
     1.0000   1.0000   1.0000   1.0000   1.0000   1.0000   1.0000   1.0000
     1.0000   1.0000   1.0000   1.0000   0.4871   0.0000   0.0000   0.0000

          k =-0.0526 0.0304-0.1807 (   857 PWs)   bands (ev):

  -112.9177-112.9172 -67.0743 -67.0677 -67.0531 -67.0525 -67.0523 -67.0517
     3.9466   4.9991   5.8437   6.0123   6.0396   6.0423   6.0706   6.4556
     6.4706   6.4839   6.5821   7.0450  15.5206  21.7643  30.1437  30.9409

     occupation numbers 
     1.0000   1.0000   1.0000   1.0000   1.0000   1.0000   1.0000   1.0000
     1.0000   1.0000   1.0000   1.0000   1.0000   1.0000   1.0000   1.0000
     1.0000   1.0000   1.0000   1.0000   0.0000   0.0000   0.0000   0.0000

          k =-0.0526 0.0304-0.2409 (   852 PWs)   bands (ev):

  -112.9176-112.9174 -67.0721 -67.0699 -67.0528 -67.0526 -67.0523 -67.0520
     4.3802   4.7736   5.9380   6.0204   6.0235   6.0472   6.0572   6.2022
     6.5114   6.5319   6.5499   6.6304  17.4793  19.5658  30.6577  31.3034

     occupation numbers 
     1.0000   1.0000   1.0000   1.0000   1.0000   1.0000   1.0000   1.0000
     1.0000   1.0000   1.0000   1.0000   1.0000   1.0000   1.0000   1.0000
     1.0000   1.0000   1.0000   1.0000   0.0000   0.0000   0.0000   0.0000

          k =-0.1053 0.0608 0.0000 (   867 PWs)   bands (ev):

  -112.9178-112.9168 -67.0770 -67.0644 -67.0557 -67.0542 -67.0535 -67.0519
     3.5378   5.2217   5.8286   6.0002   6.0504   6.1031   6.1518   6.3250
     6.3744   6.4628   6.6274  10.5486  10.9241  26.9703  27.9094  28.9831

     occupation numbers 
     1.0000   1.0000   1.0000   1.0000   1.0000   1.0000   1.0000   1.0000
     1.0000   1.0000   1.0000   1.0000   1.0000   1.0000   1.0000   1.0000
     1.0000   1.0000   1.0000   1.0000   1.0000   0.0000   0.0000   0.0000

          k =-0.1053 0.0608-0.0602 (   863 PWs)   bands (ev):

  -112.9177-112.9168 -67.0766 -67.0648 -67.0556 -67.0542 -67.0535 -67.0520
     3.6129   5.2190   5.8289   5.9951   6.0440   6.1010   6.1479   6.3378
     6.3858   6.4543   6.6220   9.3742  12.2675  26.4765  27.0981  29.0666

     occupation numbers 
     1.0000   1.0000   1.0000   1.0000   1.0000   1.0000   1.0000   1.0000
     1.0000   1.0000   1.0000   1.0000   1.0000   1.0000   1.0000   1.0000
     1.0000   1.0000   1.0000   1.0000   1.0000   0.0000   0.0000   0.0000

          k =-0.1053 0.0608-0.1205 (   853 PWs)   bands (ev):

  -112.9176-112.9169 -67.0756 -67.0659 -67.0555 -67.0543 -67.0533 -67.0521
     3.8333   5.2026   5.8317   5.9852   6.0276   6.0972   6.1374   6.3538
     6.4160   6.4415   6.6058   8.2253  13.9358  24.2607  27.3053  29.3159

     occupation numbers 
     1.0000   1.0000   1.0000   1.0000   1.0000   1.0000   1.0000   1.0000
     1.0000   1.0000   1.0000   1.0000   1.0000   1.0000   1.0000   1.0000
     1.0000   1.0000   1.0000   1.0000   0.0697   0.0000   0.0000   0.0000

          k =-0.1053 0.0608-0.1807 (   851 PWs)   bands (ev):

  -112.9175-112.9170 -67.0739 -67.0676 -67.0553 -67.0545 -67.0531 -67.0523
     4.1795   5.1403   5.8471   5.9813   6.0057   6.0961   6.1237   6.2848
     6.4571   6.4840   6.5793   7.3291  15.7539  21.9882  27.6855  29.7045

     occupation numbers 
     1.0000   1.0000   1.0000   1.0000   1.0000   1.0000   1.0000   1.0000
     1.0000   1.0000   1.0000   1.0000   1.0000   1.0000   1.0000   1.0000
     1.0000   1.0000   1.0000   1.0000   0.0000   0.0000   0.0000   0.0000

          k =-0.1053 0.0608-0.2409 (   856 PWs)   bands (ev):

  -112.9174-112.9172 -67.0719 -67.0697 -67.0550 -67.0547 -67.0529 -67.0526
     4.5964   4.9553   5.9019   5.9712   6.0029   6.1004   6.1102   6.1132
     6.5017   6.5437   6.5845   6.8006  17.7100  19.7933  28.2162  28.8920

     occupation numbers 
     1.0000   1.0000   1.0000   1.0000   1.0000   1.0000   1.0000   1.0000
     1.0000   1.0000   1.0000   1.0000   1.0000   1.0000   1.0000   1.0000
     1.0000   1.0000   1.0000   1.0000   0.0000   0.0000   0.0000   0.0000

          k =-0.1579 0.0912 0.0000 (   865 PWs)   bands (ev):

  -112.9174-112.9165 -67.0762 -67.0644 -67.0591 -67.0577 -67.0545 -67.0528
     3.9342   5.3560   5.8429   5.9756   6.0610   6.1906   6.1924   6.2362
     6.3424   6.3649   6.6293  11.1254  11.1623  24.5014  27.7851  28.2784

     occupation numbers 
     1.0000   1.0000   1.0000   1.0000   1.0000   1.0000   1.0000   1.0000
     1.0000   1.0000   1.0000   1.0000   1.0000   1.0000   1.0000   1.0000
     1.0000   1.0000   1.0000   1.0000   1.0000   0.0000   0.0000   0.0000

          k =-0.1579 0.0912-0.0602 (   865 PWs)   bands (ev):

  -112.9174-112.9165 -67.0759 -67.0648 -67.0590 -67.0577 -67.0544 -67.0528
     4.0066   5.3580   5.8448   5.9667   6.0432   6.1884   6.2022   6.2315
     6.3571   6.3715   6.6231   9.7951  12.6584  24.5701  26.8941  27.8718

     occupation numbers 
     1.0000   1.0000   1.0000   1.0000   1.0000   1.0000   1.0000   1.0000
     1.0000   1.0000   1.0000   1.0000   1.0000   1.0000   1.0000   1.0000
     1.0000   1.0000   1.0000   1.0000   1.0000   0.0000   0.0000   0.0000

          k =-0.1579 0.0912-0.1205 (   854 PWs)   bands (ev):

  -112.9173-112.9166 -67.0749 -67.0659 -67.0589 -67.0577 -67.0543 -67.0530
     4.2179   5.3580   5.8482   5.9468   6.0083   6.1813   6.1990   6.2202
     6.3934   6.4094   6.6045   8.6321  14.3269  24.4603  25.0065  28.2315

     occupation numbers 
     1.0000   1.0000   1.0000   1.0000   1.0000   1.0000   1.0000   1.0000
     1.0000   1.0000   1.0000   1.0000   1.0000   1.0000   1.0000   1.0000
     1.0000   1.0000   1.0000   1.0000   0.0001   0.0000   0.0000   0.0000

          k =-0.1579 0.0912-0.1807 (   855 PWs)   bands (ev):

  -112.9172-112.9167 -67.0734 -67.0676 -67.0586 -67.0578 -67.0541 -67.0532
     4.5441   5.3309   5.8483   5.9293   5.9773   6.1448   6.1782   6.2059
     6.4399   6.5034   6.5747   7.6928  16.1405  22.3432  25.2445  27.2807

     occupation numbers 
     1.0000   1.0000   1.0000   1.0000   1.0000   1.0000   1.0000   1.0000
     1.0000   1.0000   1.0000   1.0000   1.0000   1.0000   1.0000   1.0000
     1.0000   1.0000   1.0000   1.0000   0.0000   0.0000   0.0000   0.0000

          k =-0.1579 0.0912-0.2409 (   853 PWs)   bands (ev):

  -112.9170-112.9169 -67.0716 -67.0695 -67.0583 -67.0581 -67.0538 -67.0535
     4.9195   5.2094   5.8560   5.8933   5.9895   6.0556   6.1820   6.1920
     6.4890   6.5352   6.6821   7.0399  18.0901  20.1646  25.7730  26.4556

     occupation numbers 
     1.0000   1.0000   1.0000   1.0000   1.0000   1.0000   1.0000   1.0000
     1.0000   1.0000   1.0000   1.0000   1.0000   1.0000   1.0000   1.0000
     1.0000   1.0000   1.0000   1.0000   0.0000   0.0000   0.0000   0.0000

          k =-0.2105 0.1215 0.0000 (   867 PWs)   bands (ev):

  -112.9170-112.9161 -67.0753 -67.0645 -67.0634 -67.0619 -67.0557 -67.0538
     4.4496   5.4636   5.8700   5.9537   6.0208   6.1523   6.2874   6.3048
     6.3060   6.3433   6.6294  11.5289  11.8609  22.1246  26.7060  27.7890

     occupation numbers 
     1.0000   1.0000   1.0000   1.0000   1.0000   1.0000   1.0000   1.0000
     1.0000   1.0000   1.0000   1.0000   1.0000   1.0000   1.0000   1.0000
     1.0000   1.0000   1.0000   1.0000   1.0000   0.0000   0.0000   0.0000

          k =-0.2105 0.1215-0.0602 (   865 PWs)   bands (ev):

  -112.9169-112.9162 -67.0750 -67.0650 -67.0633 -67.0618 -67.0556 -67.0539
     4.5142   5.4693   5.8700   5.9388   6.0132   6.1499   6.2832   6.3148
     6.3280   6.3495   6.6224  10.3326  13.2163  22.1995  26.7953  26.9585

     occupation numbers 
     1.0000   1.0000   1.0000   1.0000   1.0000   1.0000   1.0000   1.0000
     1.0000   1.0000   1.0000   1.0000   1.0000   1.0000   1.0000   1.0000
     1.0000   1.0000   1.0000   1.0000   1.0499   0.0000   0.0000   0.0000

          k =-0.2105 0.1215-0.1205 (   853 PWs)   bands (ev):

  -112.9169-112.9162 -67.0742 -67.0661 -67.0630 -67.0617 -67.0554 -67.0540
     4.6985   5.4819   5.8630   5.9024   6.0009   6.1390   6.2713   6.3224
     6.3860   6.3995   6.6021   9.1556  14.8735  22.4143  25.1540  25.9012

     occupation numbers 
     1.0000   1.0000   1.0000   1.0000   1.0000   1.0000   1.0000   1.0000
     1.0000   1.0000   1.0000   1.0000   1.0000   1.0000   1.0000   1.0000
     1.0000   1.0000   1.0000   1.0000   0.0000   0.0000   0.0000   0.0000

          k =-0.2105 0.1215-0.1807 (   859 PWs)   bands (ev):

  -112.9168-112.9163 -67.0729 -67.0677 -67.0627 -67.0618 -67.0552 -67.0543
     4.9668   5.4834   5.8349   5.8593   6.0072   6.1150   6.2700   6.3078
     6.4327   6.5631   6.5699   8.1650  16.6755  22.5022  23.2243  24.9404

     occupation numbers 
     1.0000   1.0000   1.0000   1.0000   1.0000   1.0000   1.0000   1.0000
     1.0000   1.0000   1.0000   1.0000   1.0000   1.0000   1.0000   1.0000
     1.0000   1.0000   1.0000   1.0000   0.0000   0.0000   0.0000   0.0000

          k =-0.2105 0.1215-0.2409 (   861 PWs)   bands (ev):

  -112.9166-112.9165 -67.0713 -67.0695 -67.0624 -67.0620 -67.0549 -67.0546
     5.2419   5.4238   5.8084   5.8201   6.0378   6.0786   6.2776   6.2915
     6.4816   6.5287   6.8672   7.3927  18.6093  20.6520  23.4462  24.1144

     occupation numbers 
     1.0000   1.0000   1.0000   1.0000   1.0000   1.0000   1.0000   1.0000
     1.0000   1.0000   1.0000   1.0000   1.0000   1.0000   1.0000   1.0000
     1.0000   1.0000   1.0000   1.0000   0.0000   0.0000   0.0000   0.0000

          k =-0.2632 0.1519 0.0000 (   881 PWs)   bands (ev):

  -112.9165-112.9158 -67.0741 -67.0680 -67.0666 -67.0646 -67.0569 -67.0550
     4.9743   5.4834   5.8607   5.9353   6.0159   6.2139   6.2660   6.3672
     6.4328   6.4625   6.6275  12.0482  12.7307  19.8685  25.5931  25.7697

     occupation numbers 
     1.0000   1.0000   1.0000   1.0000   1.0000   1.0000   1.0000   1.0000
     1.0000   1.0000   1.0000   1.0000   1.0000   1.0000   1.0000   1.0000
     1.0000   1.0000   1.0000   1.0000   1.0000   0.0000   0.0000   0.0000

          k =-0.2632 0.1519-0.0602 (   865 PWs)   bands (ev):

  -112.9165-112.9158 -67.0740 -67.0679 -67.0669 -67.0646 -67.0569 -67.0550
     5.0150   5.4898   5.8489   5.9307   5.9984   6.2724   6.2826   6.3637
     6.4361   6.4589   6.6206  10.9925  13.9374  19.9450  24.7486  25.8611

     occupation numbers 
     1.0000   1.0000   1.0000   1.0000   1.0000   1.0000   1.0000   1.0000
     1.0000   1.0000   1.0000   1.0000   1.0000   1.0000   1.0000   1.0000
     1.0000   1.0000   1.0000   1.0000   0.0684   0.0000   0.0000   0.0000

          k =-0.2632 0.1519-0.1205 (   862 PWs)   bands (ev):

  -112.9164-112.9158 -67.0734 -67.0679 -67.0673 -67.0647 -67.0567 -67.0552
     5.1227   5.5050   5.8237   5.8636   6.0430   6.2906   6.3285   6.4349
     6.4594   6.4763   6.6012   9.8133  15.5686  20.1713  23.6841  25.6281

     occupation numbers 
     1.0000   1.0000   1.0000   1.0000   1.0000   1.0000   1.0000   1.0000
     1.0000   1.0000   1.0000   1.0000   1.0000   1.0000   1.0000   1.0000
     1.0000   1.0000   1.0000   1.0000   0.0000   0.0000   0.0000   0.0000

          k =-0.2632 0.1519-0.1807 (   865 PWs)   bands (ev):

  -112.9163-112.9159 -67.0726 -67.0690 -67.0668 -67.0650 -67.0565 -67.0555
     5.2607   5.5129   5.7869   5.7976   6.1146   6.2948   6.3180   6.4141
     6.4789   6.5728   6.7815   8.7868  17.3448  20.5290  22.7292  23.5632

     occupation numbers 
     1.0000   1.0000   1.0000   1.0000   1.0000   1.0000   1.0000   1.0000
     1.0000   1.0000   1.0000   1.0000   1.0000   1.0000   1.0000   1.0000
     1.0000   1.0000   1.0000   1.0000   0.0000   0.0000   0.0000   0.0000

          k =-0.2632 0.1519-0.2409 (   856 PWs)   bands (ev):

  -112.9162-112.9161 -67.0715 -67.0702 -67.0662 -67.0656 -67.0561 -67.0558
     5.3893   5.4800   5.7545   5.7655   6.1851   6.2461   6.3509   6.3844
     6.5073   6.5399   7.2615   7.9319  19.2245  20.7619  21.7479  21.9373

     occupation numbers 
     1.0000   1.0000   1.0000   1.0000   1.0000   1.0000   1.0000   1.0000
     1.0000   1.0000   1.0000   1.0000   1.0000   1.0000   1.0000   1.0000
     1.0000   1.0000   1.0000   1.0000   0.0000   0.0000   0.0000   0.0000

          k =-0.3158 0.1823 0.0000 (   867 PWs)   bands (ev):

  -112.9160-112.9154 -67.0730 -67.0726 -67.0711 -67.0649 -67.0582 -67.0561
     5.2722   5.4464   5.7272   6.0105   6.1454   6.1912   6.2298   6.5590
     6.5818   6.6242   6.8912  12.7319  13.7190  17.7577  23.4824  24.4377

     occupation numbers 
     1.0000   1.0000   1.0000   1.0000   1.0000   1.0000   1.0000   1.0000
     1.0000   1.0000   1.0000   1.0000   1.0000   1.0000   1.0000   1.0000
     1.0000   1.0000   1.0000   1.0000   0.4407   0.0000   0.0000   0.0000

          k =-0.3158 0.1823-0.0602 (   869 PWs)   bands (ev):

  -112.9160-112.9154 -67.0735 -67.0718 -67.0712 -67.0650 -67.0581 -67.0562
     5.2782   5.4500   5.7327   5.9669   6.0918   6.2396   6.3200   6.5595
     6.5708   6.6239   6.9260  11.7875  14.8048  17.8344  22.6636  25.0867

     occupation numbers 
     1.0000   1.0000   1.0000   1.0000   1.0000   1.0000   1.0000   1.0000
     1.0000   1.0000   1.0000   1.0000   1.0000   1.0000   1.0000   1.0000
     1.0000   1.0000   1.0000   1.0000   0.0000   0.0000   0.0000   0.0000

          k =-0.3158 0.1823-0.1205 (   871 PWs)   bands (ev):

  -112.9159-112.9155 -67.0738 -67.0718 -67.0705 -67.0654 -67.0580 -67.0564
     5.2990   5.4592   5.7351   5.8525   6.1494   6.2680   6.4355   6.5332
     6.5693   6.6205   7.0797  10.6217  16.3880  18.0631  21.6163  25.3641

     occupation numbers 
     1.0000   1.0000   1.0000   1.0000   1.0000   1.0000   1.0000   1.0000
     1.0000   1.0000   1.0000   1.0000   1.0000   1.0000   1.0000   1.0000
     1.0000   1.0000   1.0000   1.0000   0.0000   0.0000   0.0000   0.0000

          k =-0.3158 0.1823-0.1807 (   863 PWs)   bands (ev):

  -112.9159-112.9155 -67.0738 -67.0724 -67.0693 -67.0660 -67.0577 -67.0566
     5.3375   5.4629   5.7218   5.7577   6.2455   6.3121   6.4622   6.4846
     6.5785   6.6128   7.4299   9.5838  18.0728  18.4418  20.7248  24.1995

     occupation numbers 
     1.0000   1.0000   1.0000   1.0000   1.0000   1.0000   1.0000   1.0000
     1.0000   1.0000   1.0000   1.0000   1.0000   1.0000   1.0000   1.0000
     1.0000   1.0000   1.0000   1.0000   0.0000   0.0000   0.0000   0.0000

          k =-0.3158 0.1823-0.2409 (   860 PWs)   bands (ev):

  -112.9157-112.9156 -67.0736 -67.0730 -67.0680 -67.0669 -67.0573 -67.0570
     5.3898   5.4400   5.7035   5.7112   6.3427   6.3671   6.4209   6.4269
     6.5900   6.6020   7.9764   8.6985  18.9228  19.2886  20.5807  22.2450

     occupation numbers 
     1.0000   1.0000   1.0000   1.0000   1.0000   1.0000   1.0000   1.0000
     1.0000   1.0000   1.0000   1.0000   1.0000   1.0000   1.0000   1.0000
     1.0000   1.0000   1.0000   1.0000   0.0000   0.0000   0.0000   0.0000

          k =-0.3684 0.2127 0.0000 (   859 PWs)   bands (ev):

  -112.9156-112.9151 -67.0765 -67.0750 -67.0718 -67.0652 -67.0593 -67.0571
     5.3263   5.4081   5.6261   6.0872   6.0885   6.1995   6.3415   6.6204
     6.6695   6.6886   7.8159  13.5193  14.8103  15.8728  21.5031  22.6222

     occupation numbers 
     1.0000   1.0000   1.0000   1.0000   1.0000   1.0000   1.0000   1.0000
     1.0000   1.0000   1.0000   1.0000   1.0000   1.0000   1.0000   1.0000
     1.0000   1.0000   1.0000   0.9435   0.0000   0.0000   0.0000   0.0000

          k =-0.3684 0.2127-0.0602 (   870 PWs)   bands (ev):

  -112.9156-112.9151 -67.0766 -67.0752 -67.0714 -67.0653 -67.0592 -67.0572
     5.3239   5.3998   5.6428   5.9786   6.1434   6.2109   6.4154   6.6030
     6.6708   6.6920   7.8726  12.6954  15.6443  16.0597  20.7398  23.4849

     occupation numbers 
     1.0000   1.0000   1.0000   1.0000   1.0000   1.0000   1.0000   1.0000
     1.0000   1.0000   1.0000   1.0000   1.0000   1.0000   1.0000   1.0000
     1.0000   1.0000   1.0000   1.0000   0.0000   0.0000   0.0000   0.0000

          k =-0.3684 0.2127-0.1205 (   873 PWs)   bands (ev):

  -112.9155-112.9151 -67.0768 -67.0755 -67.0705 -67.0656 -67.0590 -67.0573
     5.3182   5.3960   5.6633   5.8404   6.2272   6.2438   6.5171   6.5594
     6.6744   6.6957   8.0618  11.5702  16.0893  17.2759  19.7999  24.6234

     occupation numbers 
     1.0000   1.0000   1.0000   1.0000   1.0000   1.0000   1.0000   1.0000
     1.0000   1.0000   1.0000   1.0000   1.0000   1.0000   1.0000   1.0000
     1.0000   1.0000   1.0000   1.0000   0.0000   0.0000   0.0000   0.0000

          k =-0.3684 0.2127-0.1807 (   873 PWs)   bands (ev):

  -112.9155-112.9152 -67.0769 -67.0760 -67.0693 -67.0662 -67.0587 -67.0576
     5.3241   5.3980   5.6638   5.7276   6.2951   6.3406   6.4992   6.5608
     6.6797   6.6954   8.4185  10.5484  16.4747  18.1084  19.7215  24.6264

     occupation numbers 
     1.0000   1.0000   1.0000   1.0000   1.0000   1.0000   1.0000   1.0000
     1.0000   1.0000   1.0000   1.0000   1.0000   1.0000   1.0000   1.0000
     1.0000   1.0000   1.0000   1.0000   0.0000   0.0000   0.0000   0.0000

          k =-0.3684 0.2127-0.2409 (   869 PWs)   bands (ev):

  -112.9154-112.9153 -67.0768 -67.0765 -67.0681 -67.0670 -67.0584 -67.0580
     5.3502   5.3830   5.6554   5.6670   6.3594   6.4300   6.4527   6.5341
     6.6859   6.6916   8.9575   9.6719  16.9878  17.6074  21.2369  23.0578

     occupation numbers 
     1.0000   1.0000   1.0000   1.0000   1.0000   1.0000   1.0000   1.0000
     1.0000   1.0000   1.0000   1.0000   1.0000   1.0000   1.0000   1.0000
     1.0000   1.0000   1.0000   1.0000   0.0000   0.0000   0.0000   0.0000

          k =-0.4211 0.2431 0.0000 (   866 PWs)   bands (ev):

  -112.9153-112.9149 -67.0794 -67.0779 -67.0709 -67.0656 -67.0601 -67.0578
     5.3035   5.3839   5.5589   6.0449   6.1468   6.1777   6.4389   6.6172
     6.7507   6.7701   8.9987  13.4519  15.1697  15.9693  19.6971  20.9763

     occupation numbers 
     1.0000   1.0000   1.0000   1.0000   1.0000   1.0000   1.0000   1.0000
     1.0000   1.0000   1.0000   1.0000   1.0000   1.0000   1.0000   1.0000
     1.0000   1.0000   1.0000   1.0379   0.0000   0.0000   0.0000   0.0000

          k =-0.4211 0.2431-0.0602 (   866 PWs)   bands (ev):

  -112.9153-112.9149 -67.0794 -67.0780 -67.0706 -67.0656 -67.0600 -67.0579
     5.3063   5.3606   5.5835   5.9648   6.1847   6.1900   6.4963   6.6021
     6.7517   6.7704   9.0612  13.2280  14.6340  16.8099  19.1088  21.8070

     occupation numbers 
     1.0000   1.0000   1.0000   1.0000   1.0000   1.0000   1.0000   1.0000
     1.0000   1.0000   1.0000   1.0000   1.0000   1.0000   1.0000   1.0000
     1.0000   1.0000   1.0000   1.0539   0.0000   0.0000   0.0000   0.0000

          k =-0.4211 0.2431-0.1205 (   871 PWs)   bands (ev):

  -112.9152-112.9149 -67.0796 -67.0783 -67.0698 -67.0659 -67.0598 -67.0581
     5.3025   5.3413   5.6141   5.8261   6.2254   6.2741   6.5601   6.5852
     6.7543   6.7704   9.2573  12.4885  14.5026  17.2423  19.1566  23.1192

     occupation numbers 
[...]
     1.0000   1.0000   1.0000   1.0134   0.0000   0.0000   0.0000   0.0000

          k =-0.5263-0.0000 0.0000 (   871 PWs)   bands (ev):

  -112.9149-112.9147 -67.0756 -67.0750 -67.0698 -67.0664 -67.0661 -67.0649
     5.6454   5.7012   5.7720   5.9861   6.0522   6.1247   6.1493   6.3705
     6.4976   6.7038  10.0615  15.3974  16.3456  16.3759  16.9340  21.8328

     occupation numbers 
     1.0000   1.0000   1.0000   1.0000   1.0000   1.0000   1.0000   1.0000
     1.0000   1.0000   1.0000   1.0000   1.0000   1.0000   1.0000   1.0000
     1.0000   1.0000   1.0000   0.0000   0.0000   0.0000   0.0000   0.0000

          k =-0.5263-0.0000-0.0602 (   871 PWs)   bands (ev):

  -112.9149-112.9147 -67.0757 -67.0752 -67.0695 -67.0669 -67.0656 -67.0649
     5.6368   5.7089   5.7973   5.8968   6.0819   6.1309   6.1800   6.3897
     6.4792   6.7085  10.1309  14.7547  16.2699  16.4259  17.8496  21.0121

     occupation numbers 
     1.0000   1.0000   1.0000   1.0000   1.0000   1.0000   1.0000   1.0000
     1.0000   1.0000   1.0000   1.0000   1.0000   1.0000   1.0000   1.0000
     1.0000   1.0000   1.0000   0.0000   0.0000   0.0000   0.0000   0.0000

          k =-0.5263-0.0000-0.1205 (   877 PWs)   bands (ev):

  -112.9149-112.9147 -67.0758 -67.0755 -67.0690 -67.0674 -67.0651 -67.0649
     5.6245   5.7300   5.7977   5.8572   6.0214   6.1827   6.2105   6.4281
     6.4588   6.7170  10.3424  13.7110  16.4592  16.6645  18.9869  19.8880

     occupation numbers 
     1.0000   1.0000   1.0000   1.0000   1.0000   1.0000   1.0000   1.0000
     1.0000   1.0000   1.0000   1.0000   1.0000   1.0000   1.0000   1.0000
     1.0000   1.0000   1.0000   0.4617   0.0000   0.0000   0.0000   0.0000

          k =-0.5263-0.0000-0.1807 (   870 PWs)   bands (ev):

  -112.9149-112.9147 -67.0760 -67.0759 -67.0685 -67.0677 -67.0649 -67.0648
     5.6213   5.7129   5.7738   5.9155   5.9784   6.1752   6.2369   6.3632
     6.5547   6.7164  10.7038  12.7379  16.8324  17.0542  18.9029  18.9206

     occupation numbers 
     1.0000   1.0000   1.0000   1.0000   1.0000   1.0000   1.0000   1.0000
     1.0000   1.0000   1.0000   1.0000   1.0000   1.0000   1.0000   1.0000
     1.0000   1.0000   1.0000   1.0000   0.0000   0.0000   0.0000   0.0000

          k =-0.5263-0.0000-0.2409 (   878 PWs)   bands (ev):

  -112.9148-112.9148 -67.0761 -67.0761 -67.0682 -67.0679 -67.0648 -67.0647
     5.6326   5.6622   5.8201   5.8760   6.0436   6.1235   6.2656   6.3053
     6.6392   6.6934  11.2230  11.9026  17.3610  17.5741  18.0755  18.2489

     occupation numbers 
     1.0000   1.0000   1.0000   1.0000   1.0000   1.0000   1.0000   1.0000
     1.0000   1.0000   1.0000   1.0000   1.0000   1.0000   1.0000   1.0000
     1.0000   1.0000   1.0000   1.0000   0.0000   0.0000   0.0000   0.0000

          k =-0.5789 0.0304 0.0000 (   869 PWs)   bands (ev):

  -112.9147-112.9146 -67.0757 -67.0746 -67.0689 -67.0685 -67.0669 -67.0666
     5.6425   5.7194   5.7956   5.9933   6.0562   6.0700   6.1908   6.4485
     6.4783   6.6485  11.3473  14.3645  15.9065  17.0776  18.1102  20.2397

     occupation numbers 
     1.0000   1.0000   1.0000   1.0000   1.0000   1.0000   1.0000   1.0000
     1.0000   1.0000   1.0000   1.0000   1.0000   1.0000   1.0000   1.0000
     1.0000   1.0000   1.0000   0.0001   0.0000   0.0000   0.0000   0.0000

          k =-0.5789 0.0304-0.0602 (   872 PWs)   bands (ev):

  -112.9147-112.9146 -67.0758 -67.0748 -67.0691 -67.0684 -67.0670 -67.0663
     5.6397   5.7262   5.8127   5.9269   6.0363   6.1202   6.2107   6.4583
     6.4621   6.6540  11.4188  14.4087  15.9006  16.4069  18.6694  19.7792

     occupation numbers 
     1.0000   1.0000   1.0000   1.0000   1.0000   1.0000   1.0000   1.0000
     1.0000   1.0000   1.0000   1.0000   1.0000   1.0000   1.0000   1.0000
     1.0000   1.0000   1.0000   0.0000   0.0000   0.0000   0.0000   0.0000

          k =-0.5789 0.0304-0.1205 (   877 PWs)   bands (ev):

  -112.9147-112.9146 -67.0759 -67.0751 -67.0693 -67.0684 -67.0667 -67.0658
     5.6365   5.7449   5.8290   5.8742   5.9853   6.1665   6.2447   6.4098
     6.5007   6.6654  11.6343  14.4187  15.3687  16.3238  18.1385  19.5450

     occupation numbers 
     1.0000   1.0000   1.0000   1.0000   1.0000   1.0000   1.0000   1.0000
     1.0000   1.0000   1.0000   1.0000   1.0000   1.0000   1.0000   1.0000
     1.0000   1.0000   1.0000   0.0000   0.0000   0.0000   0.0000   0.0000

          k =-0.5789 0.0304-0.1807 (   877 PWs)   bands (ev):

  -112.9147-112.9146 -67.0760 -67.0755 -67.0693 -67.0687 -67.0662 -67.0655
     5.6412   5.7476   5.7896   5.9216   5.9489   6.1685   6.2685   6.3508
     6.5611   6.6706  11.9958  13.8927  15.3296  16.6648  17.2734  18.7208

     occupation numbers 
     1.0000   1.0000   1.0000   1.0000   1.0000   1.0000   1.0000   1.0000
     1.0000   1.0000   1.0000   1.0000   1.0000   1.0000   1.0000   1.0000
     1.0000   1.0000   1.0000   0.1102   0.0000   0.0000   0.0000   0.0000

          k =-0.5789 0.0304-0.2409 (   876 PWs)   bands (ev):

  -112.9147-112.9146 -67.0760 -67.0758 -67.0692 -67.0690 -67.0657 -67.0655
     5.6604   5.6973   5.8248   5.8727   6.0313   6.1163   6.2867   6.3100
     6.6193   6.6572  12.5041  13.1516  15.7753  16.4084  17.2665  17.9274

     occupation numbers 
     1.0000   1.0000   1.0000   1.0000   1.0000   1.0000   1.0000   1.0000
     1.0000   1.0000   1.0000   1.0000   1.0000   1.0000   1.0000   1.0000
     1.0000   1.0000   1.0000   1.0296   0.0000   0.0000   0.0000   0.0000

          k =-0.6316 0.0608 0.0000 (   867 PWs)   bands (ev):

  -112.9147-112.9145 -67.0757 -67.0742 -67.0695 -67.0685 -67.0677 -67.0669
     5.6424   5.7212   5.8053   6.0172   6.0289   6.0568   6.2061   6.4716
     6.5135   6.5931  12.7297  12.8536  15.8387  18.0354  18.9401  19.0828

     occupation numbers 
     1.0000   1.0000   1.0000   1.0000   1.0000   1.0000   1.0000   1.0000
     1.0000   1.0000   1.0000   1.0000   1.0000   1.0000   1.0000   1.0000
     1.0000   1.0000   1.0000   1.0005   0.0000   0.0000   0.0000   0.0000

          k =-0.6316 0.0608-0.0602 (   874 PWs)   bands (ev):

  -112.9147-112.9146 -67.0757 -67.0744 -67.0698 -67.0680 -67.0680 -67.0666
     5.6412   5.7279   5.8189   5.9556   6.0001   6.1152   6.2259   6.4525
     6.5210   6.6008  12.8075  12.9144  15.9059  17.5369  17.7483  20.3069

     occupation numbers 
     1.0000   1.0000   1.0000   1.0000   1.0000   1.0000   1.0000   1.0000
     1.0000   1.0000   1.0000   1.0000   1.0000   1.0000   1.0000   1.0000
     1.0000   1.0000   1.0002   1.0014   0.0000   0.0000   0.0000   0.0000

          k =-0.6316 0.0608-0.1205 (   870 PWs)   bands (ev):

  -112.9147-112.9146 -67.0758 -67.0748 -67.0701 -67.0685 -67.0672 -67.0661
     5.6406   5.7467   5.8572   5.8677   5.9666   6.1599   6.2628   6.4024
     6.5439   6.6185  13.0352  13.0967  16.0382  16.6334  16.7414  19.5452

     occupation numbers 
     1.0000   1.0000   1.0000   1.0000   1.0000   1.0000   1.0000   1.0000
     1.0000   1.0000   1.0000   1.0000   1.0000   1.0000   1.0000   1.0000
     1.0000   1.0000   1.0082   1.0170   0.0000   0.0000   0.0000   0.0000

          k =-0.6316 0.0608-0.1807 (   876 PWs)   bands (ev):

  -112.9146-112.9146 -67.0759 -67.0752 -67.0701 -67.0690 -67.0664 -67.0657
     5.6485   5.7662   5.7973   5.8873   5.9614   6.1648   6.2910   6.3461
     6.5789   6.6335  13.3889  13.3922  15.5743  15.7557  16.6748  18.6511

     occupation numbers 
     1.0000   1.0000   1.0000   1.0000   1.0000   1.0000   1.0000   1.0000
     1.0000   1.0000   1.0000   1.0000   1.0000   1.0000   1.0000   1.0000
     1.0000   1.0000   1.0777   1.0766   0.0000   0.0000   0.0000   0.0000

          k =-0.6316 0.0608-0.2409 (   882 PWs)   bands (ev):

  -112.9146-112.9146 -67.0758 -67.0756 -67.0699 -67.0695 -67.0659 -67.0657
     5.6726   5.7166   5.8192   5.8585   6.0314   6.1139   6.3056   6.3163
     6.6134   6.6335  13.7344  13.7605  14.9903  15.0758  17.1732  17.8454

     occupation numbers 
     1.0000   1.0000   1.0000   1.0000   1.0000   1.0000   1.0000   1.0000
     1.0000   1.0000   1.0000   1.0000   1.0000   1.0000   1.0000   1.0000
     1.0000   1.0000   0.4012   0.3378   0.0000   0.0000   0.0000   0.0000

          k =-0.6316-0.0000 0.0000 (   867 PWs)   bands (ev):

  -112.9146-112.9145 -67.0743 -67.0730 -67.0711 -67.0696 -67.0681 -67.0672
     5.6558   5.8168   5.8381   5.9717   6.0010   6.0284   6.2144   6.4599
     6.4914   6.5712  12.7219  14.1519  14.3366  18.2731  19.2684  19.9266

     occupation numbers 
     1.0000   1.0000   1.0000   1.0000   1.0000   1.0000   1.0000   1.0000
     1.0000   1.0000   1.0000   1.0000   1.0000   1.0000   1.0000   1.0000
     1.0000   1.0000   1.0000   0.0034   0.0001   0.0000   0.0000   0.0000

          k =-0.6316-0.0000-0.0602 (   868 PWs)   bands (ev):

  -112.9146-112.9145 -67.0743 -67.0732 -67.0712 -67.0698 -67.0678 -67.0670
     5.6669   5.8112   5.8332   5.9336   6.0257   6.0386   6.2163   6.4406
     6.5043   6.5801  12.7940  14.2115  14.4185  17.5835  18.8696  19.1353

     occupation numbers 
     1.0000   1.0000   1.0000   1.0000   1.0000   1.0000   1.0000   1.0000
     1.0000   1.0000   1.0000   1.0000   1.0000   1.0000   1.0000   1.0000
     1.0000   1.0000   1.0002   0.0012   0.0000   0.0000   0.0000   0.0000

          k =-0.6316-0.0000-0.1205 (   868 PWs)   bands (ev):

  -112.9146-112.9146 -67.0743 -67.0736 -67.0715 -67.0701 -67.0671 -67.0665
     5.6950   5.7914   5.8248   5.9026   6.0215   6.0717   6.2206   6.3892
     6.5379   6.6010  13.0090  14.3773  14.6619  16.5904  18.0130  18.0373

     occupation numbers 
     1.0000   1.0000   1.0000   1.0000   1.0000   1.0000   1.0000   1.0000
     1.0000   1.0000   1.0000   1.0000   1.0000   1.0000   1.0000   1.0000
     1.0000   1.0000   1.0058   0.0000   0.0000   0.0000   0.0000   0.0000

          k =-0.6316-0.0000-0.1807 (   878 PWs)   bands (ev):

  -112.9146-112.9146 -67.0744 -67.0741 -67.0716 -67.0706 -67.0664 -67.0661
     5.7213   5.7634   5.8315   5.8908   6.0233   6.0811   6.2269   6.3237
     6.5792   6.6210  13.3621  14.5563  15.0575  15.8091  17.0585  17.1659

     occupation numbers 
     1.0000   1.0000   1.0000   1.0000   1.0000   1.0000   1.0000   1.0000
     1.0000   1.0000   1.0000   1.0000   1.0000   1.0000   1.0000   1.0000
     1.0000   1.0000   1.0828   0.0000   0.0000   0.0000   0.0000   0.0000

          k =-0.6316-0.0000-0.2409 (   888 PWs)   bands (ev):

  -112.9146-112.9146 -67.0744 -67.0744 -67.0714 -67.0710 -67.0660 -67.0659
     5.7318   5.7422   5.8592   5.8813   6.0383   6.0650   6.2397   6.2693
     6.6125   6.6271  13.8379  14.3581  15.5646  15.6593  16.3246  16.4024

     occupation numbers 
     1.0000   1.0000   1.0000   1.0000   1.0000   1.0000   1.0000   1.0000
     1.0000   1.0000   1.0000   1.0000   1.0000   1.0000   1.0000   1.0000
     1.0000   1.0000   0.1847   0.0001   0.0000   0.0000   0.0000   0.0000

     the Fermi energy is    13.7346 ev

!    total energy              =    -923.10558622 Ry
     estimated scf accuracy    <          1.2E-10 Ry
     smearing contrib. (-TS)   =      -0.00006342 Ry
     internal energy E=F+TS    =    -923.10552280 Ry

     The total energy is F=E-TS. E is the sum of the following terms:
     one-electron contribution =    -719.32163203 Ry
     hartree contribution      =     374.54142158 Ry
     xc contribution           =     -84.37257285 Ry
     ewald contribution        =    -493.95273950 Ry

     convergence has been achieved in  10 iterations

     Forces acting on atoms (cartesian axes, Ry/au):

     atom    1 type  1   force =     0.00000000    0.00000000    0.00000000
     atom    2 type  1   force =     0.00000000    0.00000000    0.00000000
     The non-local contrib.  to forces
     atom    1 type  1   force =    -0.00000000   -0.00000000    0.00000000
     atom    2 type  1   force =     0.00000000   -0.00000000    0.00000000
     The ionic contribution  to forces
     atom    1 type  1   force =    -0.00000000   -0.00000000    0.00000000
     atom    2 type  1   force =     0.00000000    0.00000000   -0.00000000
     The local contribution  to forces
     atom    1 type  1   force =    -0.00000001    0.00000008   -0.00000005
     atom    2 type  1   force =    -0.00000001   -0.00000028   -0.00000005
     The core correction contribution to forces
     atom    1 type  1   force =     0.00000000    0.00000000    0.00000000
     atom    2 type  1   force =     0.00000000    0.00000000    0.00000000
     The Hubbard contrib.    to forces
     atom    1 type  1   force =     0.00000000    0.00000000    0.00000000
     atom    2 type  1   force =     0.00000000    0.00000000    0.00000000
     The SCF correction term to forces
     atom    1 type  1   force =    -0.00000000    0.00000000   -0.00000000
     atom    2 type  1   force =    -0.00000000   -0.00000000   -0.00000000

     Total force =     0.000000     Total SCF correction =     0.000000


     Computing stress (Cartesian axis) and pressure

          total   stress  (Ry/bohr**3)                   (kbar)     P=        2.79
   0.00002228   0.00000000  -0.00000000            3.28        0.00       -0.00
  -0.00000000   0.00002228  -0.00000000           -0.00        3.28       -0.00
   0.00000000   0.00000000   0.00001226            0.00        0.00        1.80

     kinetic stress (kbar)  38794.62     -0.00      0.00
                                0.00  38794.62      0.00
                                0.00      0.00  38916.49

     local   stress (kbar)    736.77     -0.00      0.00
                               -0.00    736.77     -0.00
                                0.00     -0.00  39502.89

     nonloc. stress (kbar)  -4095.19     -0.00     -0.00
                               -0.00  -4095.19      0.00
                                0.00      0.00  -4184.93

     hartree stress (kbar)  95858.50     -0.00     -0.00
                               -0.00  95858.50      0.00
                               -0.00      0.00  79343.98

     exc-cor stress (kbar) -19556.05      0.00      0.00
                                0.00 -19556.05      0.00
                                0.00      0.00 -19566.72

     corecor stress (kbar)      0.00      0.00      0.00
                                0.00      0.00      0.00
                                0.00      0.00      0.00

     ewald   stress (kbar)-111735.38     -0.00      0.00
                               -0.00-111735.38     -0.00
                                0.00     -0.00-134009.91

     hubbard stress (kbar)      0.00      0.00      0.00
                                0.00      0.00      0.00
                                0.00      0.00      0.00

     DFT-D   stress (kbar)      0.00      0.00      0.00
                                0.00      0.00      0.00
                                0.00      0.00      0.00

     XDM     stress (kbar)      0.00      0.00      0.00
                                0.00      0.00      0.00
                                0.00      0.00      0.00

     dft-nl  stress (kbar)      0.00      0.00      0.00
                                0.00      0.00      0.00
                                0.00      0.00      0.00

     TS-vdW  stress (kbar)      0.00      0.00      0.00
                                0.00      0.00      0.00
                                0.00      0.00      0.00

     MDB     stress (kbar)      0.00      0.00      0.00
                                0.00      0.00      0.00
                                0.00      0.00      0.00

     3D-RISM stress (kbar)      0.00      0.00      0.00
                                0.00      0.00      0.00
                                0.00      0.00      0.00


     Writing all to output data dir ../out/aiida.save/ :
     XML data file, charge density, pseudopotentials, collected wavefunctions
 
     init_run     :      5.30s CPU      5.46s WALL (       1 calls)
     electrons    :    184.24s CPU    184.50s WALL (       1 calls)
     forces       :      2.54s CPU      2.55s WALL (       1 calls)
     stress       :     14.37s CPU     14.38s WALL (       1 calls)

     Called by init_run:
     wfcinit      :      4.74s CPU      4.83s WALL (       1 calls)
     wfcinit:atom :      1.00s CPU      1.00s WALL (     200 calls)
     wfcinit:wfcr :      3.21s CPU      3.28s WALL (     200 calls)
     potinit      :      0.21s CPU      0.23s WALL (       1 calls)
     hinit0       :      0.21s CPU      0.22s WALL (       1 calls)

     Called by electrons:
     c_bands      :    151.88s CPU    152.07s WALL (      11 calls)
     sum_band     :     30.78s CPU     30.83s WALL (      11 calls)
     v_of_rho     :      0.25s CPU      0.27s WALL (      11 calls)
     v_h          :      0.03s CPU      0.03s WALL (      11 calls)
     v_xc         :      0.22s CPU      0.23s WALL (      11 calls)
     newd         :      1.21s CPU      1.25s WALL (      11 calls)
                                        1.25s GPU  (      11 calls)
     mix_rho      :      0.24s CPU      0.25s WALL (      11 calls)

     Called by c_bands:
     init_us_2    :      9.33s CPU      9.35s WALL (    5000 calls)
     cegterg      :    144.08s CPU    144.26s WALL (    2200 calls)

     Called by sum_band:
     sum_band:wei :      0.04s CPU      0.04s WALL (      11 calls)
     sum_band:loo :     29.20s CPU     29.23s WALL (      11 calls)
     sum_band:buf :      0.12s CPU      0.12s WALL (    2200 calls)
     sum_band:ini :      3.95s CPU      3.96s WALL (    2200 calls)
     sum_band:cal :      1.76s CPU      1.77s WALL (    2200 calls)
     sum_band:bec :      2.90s CPU      2.91s WALL (    2200 calls)
     addusdens    :      1.46s CPU      1.47s WALL (      11 calls)
                                        1.47s GPU  (      11 calls)
     addusd:skk   :      0.01s CPU      0.01s WALL (      11 calls)
                                        0.01s GPU  (      11 calls)

     Called by *egterg:
     cdiaghg      :     18.44s CPU     19.17s WALL (    6820 calls)
                                       18.07s GPU  (    6820 calls)
     cegterg:over :      9.44s CPU      9.46s WALL (    4820 calls)
     cegterg:upda :     18.25s CPU     18.26s WALL (    4820 calls)
     cegterg:last :      2.78s CPU      2.78s WALL (    4280 calls)
     h_psi        :     76.87s CPU     78.22s WALL (    7220 calls)
                                       77.08s GPU  (    7220 calls)
     s_psi        :      6.35s CPU      6.36s WALL (    7220 calls)
     g_psi        :      0.02s CPU      0.91s WALL (    4820 calls)
                                        0.05s GPU  (    4820 calls)

     Called by h_psi:
     h_psi:calbec :      5.90s CPU      7.11s WALL (    7220 calls)
                                        5.39s GPU  (    7220 calls)
     vloc_psi     :     57.64s CPU     58.90s WALL (    7220 calls)
                                       57.72s GPU  (    7220 calls)
     add_vuspsi   :      5.08s CPU      6.92s WALL (    7220 calls)
                                        5.75s GPU  (    7220 calls)

     General routines
     calbec       :     11.69s CPU     11.75s WALL (   12820 calls)
     fft          :      0.20s CPU      0.24s WALL (     150 calls)
                                        0.13s GPU  (     139 calls)
     ffts         :      0.11s CPU      0.11s WALL (      22 calls)
                                        0.01s GPU  (      11 calls)
     fftw         :     24.45s CPU     28.18s WALL (   28440 calls)
                                       22.38s GPU  (   28440 calls)
     interpolate  :      0.18s CPU      0.18s WALL (      11 calls)
 
     Parallel routines
 
     PWSCF        :   3m26.75s CPU   3m27.31s WALL

 
   This run was terminated on:  16:12:21   9Apr2025            

=------------------------------------------------------------------------------=
   JOB DONE.
=------------------------------------------------------------------------------=
