
     Program PWSCF v.7.4 starts on  4Jun2025 at 16: 5:58 

     This program is part of the open-source Quantum ESPRESSO suite
     for quantum simulation of materials; please cite
         "P. Giannozzi et al., J. Phys.:Condens. Matter 21 395502 (2009);
         "P. Giannozzi et al., J. Phys.:Condens. Matter 29 465901 (2017);
         "P. Giannozzi et al., J. Chem. Phys. 152 154105 (2020);
          URL http://www.quantum-espresso.org", 
     in publications or presentations arising from this work. More details at
     http://www.quantum-espresso.org/quote

     Parallel version (MPI), running on     8 processors

     MPI processes distributed on     1 nodes
     177358 MiB available memory on the printing compute node when the environment starts

     Waiting for input...
     Reading input from standard input

     Current dimensions of program PWSCF are:
     Max number of different atomic species (ntypx) = 10
     Max number of k-points (npk) =  40000
     Max angular momentum in pseudopotentials (lmaxx) =  4

     R & G space division:  proc/nbgrp/npool/nimage =       8
     Subspace diagonalization in iterative solution of the eigenvalue problem:
     one sub-group per band group will be used
     custom distributed-memory algorithm (size of sub-group:  2*  2 procs)


     Parallelization info
     --------------------
     sticks:   dense  smooth     PW     G-vecs:    dense   smooth      PW
     Min        2394    1197    330               216342    76461   11031
     Max        2396    1199    331               216343    76462   11032
     Sum       19157    9583   2645              1730739   611689   88251

     Using Slab Decomposition



     bravais-lattice index     =            9
     lattice parameter (alat)  =      66.9237  a.u.
     unit-cell volume          =   17903.5637 (a.u.)^3
     number of atoms/cell      =          148
     number of atomic types    =            4
     number of electrons       =       836.00
     number of Kohn-Sham states=          502
     kinetic-energy cutoff     =      40.0000  Ry
     charge density cutoff     =     320.0000  Ry
     scf convergence threshold =      6.4E-07
     mixing beta               =       0.7000
     number of iterations used =            8  plain     mixing
     energy convergence thresh.=      3.2E-03
     force convergence thresh. =      1.0E-04
     press convergence thresh. =      5.0E-02
     Exchange-correlation=  SLA  PW   PBX  PBC
                           (   1   4   3   4   0   0   0)
     nstep                     =           50


     celldm(1)=  66.923708  celldm(2)=   0.335758  celldm(3)=   0.355798
     celldm(4)=   0.000000  celldm(5)=   0.000000  celldm(6)=   0.000000

     crystal axes: (cart. coord. in units of alat)
               a(1) = (   0.500000   0.167879   0.000000 )  
               a(2) = (  -0.500000   0.167879   0.000000 )  
               a(3) = (   0.000000   0.000000   0.355798 )  

     reciprocal axes: (cart. coord. in units 2 pi/alat)
               b(1) = (  1.000000  2.978336 -0.000000 )  
               b(2) = ( -1.000000  2.978336  0.000000 )  
               b(3) = (  0.000000 -0.000000  2.810585 )  


     PseudoPot. # 1 for Ge read from file:
     ./pseudo/ge_pbe_v1.4.uspp.F.UPF
     MD5 check sum: 9c9eaa91e581c3f09632fb3098b2c6b2
     Pseudo is Ultrasoft + core correction, Zval = 14.0
     Generated by new atomic code, or converted to UPF format
     Using radial grid of  873 points,  6 beta functions with: 
                l(1) =   0
                l(2) =   0
                l(3) =   1
                l(4) =   1
                l(5) =   2
                l(6) =   2
     Q(r) pseudized with  8 coefficients,  rinner =    1.400   1.400   1.400
                                                       1.400   1.400

     PseudoPot. # 2 for Li read from file:
     ./pseudo/li_pbe_v1.4.uspp.F.UPF
     MD5 check sum: e912e257baa3777c20ea3d68f190483c
     Pseudo is Ultrasoft, Zval =  3.0
     Generated by new atomic code, or converted to UPF format
     Using radial grid of  751 points,  5 beta functions with: 
                l(1) =   0
                l(2) =   0
                l(3) =   0
                l(4) =   1
                l(5) =   1
     Q(r) pseudized with 10 coefficients,  rinner =    1.150   1.150   1.150


     PseudoPot. # 3 for P  read from file:
     ./pseudo/P.pbe-n-rrkjus_psl.1.0.0.UPF
     MD5 check sum: 8b930f418f0a4573dca56cd030ffe088
     Pseudo is Ultrasoft + core correction, Zval =  5.0
     Generated using "atomic" code by A. Dal Corso  v.5.1
     Using radial grid of 1147 points,  6 beta functions with: 
                l(1) =   0
                l(2) =   0
                l(3) =   1
                l(4) =   1
                l(5) =   2
                l(6) =   2
     Q(r) pseudized with 0 coefficients 


     PseudoPot. # 4 for S  read from file:
     ./pseudo/s_pbe_v1.4.uspp.F.UPF
     MD5 check sum: 88d86576ff6df21479756cfb9bdac1df
     Pseudo is Ultrasoft + core correction, Zval =  6.0
     Generated by new atomic code, or converted to UPF format
     Using radial grid of  907 points,  6 beta functions with: 
                l(1) =   0
                l(2) =   0
                l(3) =   1
                l(4) =   1
                l(5) =   2
                l(6) =   2
     Q(r) pseudized with  8 coefficients,  rinner =    1.300   1.300   1.300
                                                       1.300   1.300

     atomic species   valence    mass     pseudopotential
     Ge               14.00    72.64000     Ge( 1.00)
     Li                3.00     6.94100     Li( 1.00)
     P                 5.00    30.97376     P ( 1.00)
     S                 6.00    32.06500     S ( 1.00)

      8 Sym. Ops., with inversion, found ( 6 have fractional translation)


                                    s                        frac. trans.

      isym =  1     identity                                     

 cryst.   s( 1) = (     1          0          0      )
                  (     0          1          0      )
                  (     0          0          1      )

 cart.    s( 1) = (  1.0000000  0.0000000  0.0000000 )
                  (  0.0000000  1.0000000  0.0000000 )
                  (  0.0000000  0.0000000  1.0000000 )


      isym =  2     180 deg rotation - cart. axis [0,0,1]        

 cryst.   s( 2) = (    -1          0          0      )    f =(  0.5000000 )
                  (     0         -1          0      )       (  0.5000000 )
                  (     0          0          1      )       (  0.0000000 )

 cart.    s( 2) = ( -1.0000000  0.0000000  0.0000000 )    f =(  0.0000000 )
                  (  0.0000000 -1.0000000  0.0000000 )       (  0.1678790 )
                  (  0.0000000  0.0000000  1.0000000 )       (  0.0000000 )


      isym =  3     180 deg rotation - cart. axis [0,1,0]        

 cryst.   s( 3) = (     0          1          0      )    f =(  0.0000000 )
                  (     1          0          0      )       (  0.0000000 )
                  (     0          0         -1      )       (  0.5000000 )

 cart.    s( 3) = ( -1.0000000  0.0000000  0.0000000 )    f =(  0.0000000 )
                  (  0.0000000  1.0000000  0.0000000 )       (  0.0000000 )
                  (  0.0000000  0.0000000 -1.0000000 )       (  0.1778989 )


      isym =  4     180 deg rotation - cart. axis [1,0,0]        

 cryst.   s( 4) = (     0         -1          0      )    f =( -0.5000000 )
                  (    -1          0          0      )       (  0.5000000 )
                  (     0          0         -1      )       (  0.5000000 )

 cart.    s( 4) = (  1.0000000  0.0000000  0.0000000 )    f =( -0.5000000 )
                  (  0.0000000 -1.0000000  0.0000000 )       (  0.0000000 )
                  (  0.0000000  0.0000000 -1.0000000 )       (  0.1778989 )


      isym =  5     inversion                                    

 cryst.   s( 5) = (    -1          0          0      )
                  (     0         -1          0      )
                  (     0          0         -1      )

 cart.    s( 5) = ( -1.0000000  0.0000000  0.0000000 )
                  (  0.0000000 -1.0000000  0.0000000 )
                  (  0.0000000  0.0000000 -1.0000000 )


      isym =  6     inv. 180 deg rotation - cart. axis [0,0,1]   

 cryst.   s( 6) = (     1          0          0      )    f =( -0.5000000 )
                  (     0          1          0      )       (  0.5000000 )
                  (     0          0         -1      )       (  0.0000000 )

 cart.    s( 6) = (  1.0000000  0.0000000  0.0000000 )    f =( -0.5000000 )
                  (  0.0000000  1.0000000  0.0000000 )       (  0.0000000 )
                  (  0.0000000  0.0000000 -1.0000000 )       (  0.0000000 )


      isym =  7     inv. 180 deg rotation - cart. axis [0,1,0]   

 cryst.   s( 7) = (     0         -1          0      )    f =(  0.0000000 )
                  (    -1          0          0      )       (  0.0000000 )
                  (     0          0          1      )       (  0.5000000 )

 cart.    s( 7) = (  1.0000000  0.0000000  0.0000000 )    f =(  0.0000000 )
                  (  0.0000000 -1.0000000  0.0000000 )       (  0.0000000 )
                  (  0.0000000  0.0000000  1.0000000 )       (  0.1778989 )


      isym =  8     inv. 180 deg rotation - cart. axis [1,0,0]   

 cryst.   s( 8) = (     0          1          0      )    f =( -0.5000000 )
                  (     1          0          0      )       ( -0.5000000 )
                  (     0          0          1      )       (  0.5000000 )

 cart.    s( 8) = ( -1.0000000  0.0000000  0.0000000 )    f =(  0.0000000 )
                  (  0.0000000  1.0000000  0.0000000 )       ( -0.1678790 )
                  (  0.0000000  0.0000000  1.0000000 )       (  0.1778989 )


     point group D_2h (mmm) 
     there are  8 classes
     the character table:

       E     C2    C2'   C2''  i     s_v   s_v'  s_v''
A_g    1.00  1.00  1.00  1.00  1.00  1.00  1.00  1.00
B_1g   1.00  1.00 -1.00 -1.00  1.00  1.00 -1.00 -1.00
B_2g   1.00 -1.00  1.00 -1.00  1.00 -1.00  1.00 -1.00
B_3g   1.00 -1.00 -1.00  1.00  1.00 -1.00 -1.00  1.00
A_u    1.00  1.00  1.00  1.00 -1.00 -1.00 -1.00 -1.00
B_1u   1.00  1.00 -1.00 -1.00 -1.00 -1.00  1.00  1.00
B_2u   1.00 -1.00  1.00 -1.00 -1.00  1.00 -1.00  1.00
B_3u   1.00 -1.00 -1.00  1.00 -1.00  1.00  1.00 -1.00

     the symmetry operations in each class and the name of the first element:

     E        1
          identity                                               
     C2       2
          180 deg rotation - cart. axis [0,0,1]                  
     C2'      4
          180 deg rotation - cart. axis [1,0,0]                  
     C2''     3
          180 deg rotation - cart. axis [0,1,0]                  
     i        5
          inversion                                              
     s_v      6
          inv. 180 deg rotation - cart. axis [0,0,1]             
     s_v'     8
          inv. 180 deg rotation - cart. axis [1,0,0]             
     s_v''    7
          inv. 180 deg rotation - cart. axis [0,1,0]             

   Cartesian axes

     site n.     atom                  positions (alat units)
         1        Ge     tau(   1) = (  -0.0881800   0.0917291   0.2174280  )
         2        Ge     tau(   2) = (   0.0881800   0.0761499   0.2174280  )
         3        Ge     tau(   3) = (   0.0881800   0.0917291   0.3162686  )
         4        Ge     tau(   4) = (  -0.0881800   0.0761499   0.3162686  )
         5        Ge     tau(   5) = (   0.0881800   0.2440289   0.1383697  )
         6        Ge     tau(   6) = (  -0.0881800   0.2596080   0.1383697  )
         7        Ge     tau(   7) = (  -0.0881800   0.2440289   0.0395291  )
         8        Ge     tau(   8) = (   0.0881800   0.2596080   0.0395291  )
         9        Ge     tau(   9) = (   0.3723300   0.1806042   0.1665133  )
        10        Ge     tau(  10) = (   0.1276700   0.1551537   0.1665133  )
        11        Ge     tau(  11) = (  -0.3723300   0.1806042   0.0113855  )
        12        Ge     tau(  12) = (  -0.1276700   0.1551537   0.0113855  )
        13        Ge     tau(  13) = (  -0.3723300   0.1551537   0.1892844  )
        14        Ge     tau(  14) = (  -0.1276700   0.1806042   0.1892844  )
        15        Ge     tau(  15) = (   0.3723300   0.1551537   0.3444122  )
        16        Ge     tau(  16) = (   0.1276700   0.1806042   0.3444122  )
        17        S      tau(  17) = (  -0.0376200   0.1229546   0.2174280  )
        18        S      tau(  18) = (   0.0376200   0.0449244   0.2174280  )
        19        S      tau(  19) = (   0.0376200   0.1229546   0.3162686  )
        20        S      tau(  20) = (  -0.0376200   0.0449244   0.3162686  )
        21        S      tau(  21) = (   0.0376200   0.2128034   0.1383697  )
        22        S      tau(  22) = (  -0.0376200   0.2908335   0.1383697  )
        23        S      tau(  23) = (  -0.0376200   0.2128034   0.0395291  )
        24        S      tau(  24) = (   0.0376200   0.2908335   0.0395291  )
        25        S      tau(  25) = (  -0.0745000   0.0340459   0.1954753  )
        26        S      tau(  26) = (   0.0745000   0.1338331   0.1954753  )
        27        S      tau(  27) = (   0.0745000   0.0340459   0.3382213  )
        28        S      tau(  28) = (  -0.0745000   0.1338331   0.3382213  )
        29        S      tau(  29) = (   0.0745000   0.3017121   0.1603225  )
        30        S      tau(  30) = (  -0.0745000   0.2019248   0.1603225  )
        31        S      tau(  31) = (  -0.0745000   0.3017121   0.0175764  )
        32        S      tau(  32) = (   0.0745000   0.2019248   0.0175764  )
        33        S      tau(  33) = (  -0.1242000   0.2866701   0.1828089  )
        34        S      tau(  34) = (   0.1242000   0.2169668   0.1828089  )
        35        S      tau(  35) = (   0.1242000   0.2866701   0.3508877  )
        36        S      tau(  36) = (  -0.1242000   0.2169668   0.3508877  )
        37        S      tau(  37) = (   0.1242000   0.0490878   0.1729889  )
        38        S      tau(  38) = (  -0.1242000   0.1187912   0.1729889  )
        39        S      tau(  39) = (  -0.1242000   0.0490878   0.0049100  )
        40        S      tau(  40) = (   0.1242000   0.1187912   0.0049100  )
        41        S      tau(  41) = (   0.3756000   0.1941017   0.1067393  )
        42        S      tau(  42) = (   0.1244000   0.1416563   0.1067393  )
        43        S      tau(  43) = (  -0.3756000   0.1941017   0.0711596  )
        44        S      tau(  44) = (  -0.1244000   0.1416563   0.0711596  )
        45        S      tau(  45) = (  -0.3756000   0.1416563   0.2490584  )
        46        S      tau(  46) = (  -0.1244000   0.1941017   0.2490584  )
        47        S      tau(  47) = (   0.3756000   0.1416563   0.2846382  )
        48        S      tau(  48) = (   0.1244000   0.1941017   0.2846382  )
        49        S      tau(  49) = (   0.3203000   0.1958476   0.1914548  )
        50        S      tau(  50) = (   0.1797000   0.1399103   0.1914548  )
        51        S      tau(  51) = (  -0.3203000   0.1958476   0.3422419  )
        52        S      tau(  52) = (  -0.1797000   0.1399103   0.3422419  )
        53        S      tau(  53) = (  -0.3203000   0.1399103   0.1643430  )
        54        S      tau(  54) = (  -0.1797000   0.1958476   0.1643430  )
        55        S      tau(  55) = (   0.3203000   0.1399103   0.0135559  )
        56        S      tau(  56) = (   0.1797000   0.1958476   0.0135559  )
        57        S      tau(  57) = (   0.1274000   0.0839395   0.2668483  )
        58        S      tau(  58) = (  -0.1274000   0.0839395   0.2668483  )
        59        S      tau(  59) = (  -0.1274000   0.2518185   0.0889494  )
        60        S      tau(  60) = (   0.1274000   0.2518185   0.0889494  )
        61        S      tau(  61) = (   0.2819600   0.1177839   0.2331543  )
        62        S      tau(  62) = (   0.2180400   0.2179741   0.2331543  )
        63        S      tau(  63) = (  -0.2819600   0.1177839   0.3005424  )
        64        S      tau(  64) = (  -0.2180400   0.2179741   0.3005424  )
        65        S      tau(  65) = (  -0.2819600   0.2179741   0.1226435  )
        66        S      tau(  66) = (  -0.2180400   0.1177839   0.1226435  )
        67        S      tau(  67) = (   0.2819600   0.2179741   0.0552554  )
        68        S      tau(  68) = (   0.2180400   0.1177839   0.0552554  )
        69        S      tau(  69) = (  -0.2832000   0.2143479   0.2360362  )
        70        S      tau(  70) = (  -0.2168000   0.1214101   0.2360362  )
        71        S      tau(  71) = (   0.2832000   0.2143479   0.2976604  )
        72        S      tau(  72) = (   0.2168000   0.1214101   0.2976604  )
        73        S      tau(  73) = (   0.2832000   0.1214101   0.1197615  )
        74        S      tau(  74) = (   0.2168000   0.2143479   0.1197615  )
        75        S      tau(  75) = (  -0.2832000   0.1214101   0.0581374  )
        76        S      tau(  76) = (  -0.2168000   0.2143479   0.0581374  )
        77        S      tau(  77) = (  -0.0325700   0.0528819   0.0545438  )
        78        S      tau(  78) = (   0.0325700   0.1149971   0.0545438  )
        79        S      tau(  79) = (   0.0325700   0.0528819   0.1233551  )
        80        S      tau(  80) = (  -0.0325700   0.1149971   0.1233551  )
        81        S      tau(  81) = (   0.0325700   0.2828761   0.3012540  )
        82        S      tau(  82) = (  -0.0325700   0.2207608   0.3012540  )
        83        S      tau(  83) = (  -0.0325700   0.2828761   0.2324427  )
        84        S      tau(  84) = (   0.0325700   0.2207608   0.2324427  )
        85        P      tau(  85) = (  -0.2495700   0.0839395   0.2668483  )
        86        P      tau(  86) = (   0.2495700   0.0839395   0.2668483  )
        87        P      tau(  87) = (   0.2495700   0.2518185   0.0889494  )
        88        P      tau(  88) = (  -0.2495700   0.2518185   0.0889494  )
        89        P      tau(  89) = (   0.0000000   0.0839395   0.0889494  )
        90        P      tau(  90) = (   0.0000000   0.2518185   0.2668483  )
        91        Li     tau(  91) = (  -0.0629000   0.1690541   0.0970616  )
        92        Li     tau(  92) = (  -0.4371000   0.1667038   0.0970616  )
        93        Li     tau(  93) = (   0.0629000   0.1690541   0.0808373  )
        94        Li     tau(  94) = (   0.4371000   0.1667038   0.0808373  )
        95        Li     tau(  95) = (   0.0629000   0.1667038   0.2587361  )
        96        Li     tau(  96) = (   0.4371000   0.1690541   0.2587361  )
        97        Li     tau(  97) = (  -0.0629000   0.1667038   0.2749605  )
        98        Li     tau(  98) = (  -0.4371000   0.1690541   0.2749605  )
        99        Li     tau(  99) = (   0.1646000   0.2518185   0.2668483  )
       100        Li     tau( 100) = (  -0.1646000   0.2518185   0.2668483  )
       101        Li     tau( 101) = (  -0.1646000   0.0839395   0.0889494  )
       102        Li     tau( 102) = (   0.1646000   0.0839395   0.0889494  )
       103        Li     tau( 103) = (   0.1700000   0.1923893   0.2668483  )
       104        Li     tau( 104) = (   0.3300000   0.1433686   0.2668483  )
       105        Li     tau( 105) = (  -0.1700000   0.1923893   0.2668483  )
       106        Li     tau( 106) = (  -0.3300000   0.1433686   0.2668483  )
       107        Li     tau( 107) = (  -0.1700000   0.1433686   0.0889494  )
       108        Li     tau( 108) = (  -0.3300000   0.1923893   0.0889494  )
       109        Li     tau( 109) = (   0.1700000   0.1433686   0.0889494  )
       110        Li     tau( 110) = (   0.3300000   0.1923893   0.0889494  )
       111        Li     tau( 111) = (   0.1916000   0.2431559   0.1739495  )
       112        Li     tau( 112) = (  -0.1916000   0.2604810   0.1739495  )
       113        Li     tau( 113) = (  -0.1916000   0.2431559   0.0039494  )
       114        Li     tau( 114) = (   0.1916000   0.2604810   0.0039494  )
       115        Li     tau( 115) = (  -0.1916000   0.0926020   0.1818482  )
       116        Li     tau( 116) = (   0.1916000   0.0752769   0.1818482  )
       117        Li     tau( 117) = (   0.1916000   0.0926020   0.3518484  )
       118        Li     tau( 118) = (  -0.1916000   0.0752769   0.3518484  )
       119        Li     tau( 119) = (   0.0000000   0.0839395   0.2668483  )
       120        Li     tau( 120) = (   0.0000000   0.2518185   0.0889494  )
       121        Li     tau( 121) = (   0.0065000   0.2407384   0.0003558  )
       122        Li     tau( 122) = (  -0.0065000   0.2628985   0.0003558  )
       123        Li     tau( 123) = (  -0.0065000   0.2407384   0.1775431  )
       124        Li     tau( 124) = (   0.0065000   0.2628985   0.1775431  )
       125        Li     tau( 125) = (  -0.0065000   0.0950195   0.3554420  )
       126        Li     tau( 126) = (   0.0065000   0.0728595   0.3554420  )
       127        Li     tau( 127) = (   0.0065000   0.0950195   0.1782547  )
       128        Li     tau( 128) = (  -0.0065000   0.0728595   0.1782547  )
       129        Li     tau( 129) = (  -0.0817000   0.0839395   0.0889494  )
       130        Li     tau( 130) = (   0.0817000   0.0839395   0.0889494  )
       131        Li     tau( 131) = (   0.0817000   0.2518185   0.2668483  )
       132        Li     tau( 132) = (  -0.0817000   0.2518185   0.2668483  )
       133        Li     tau( 133) = (  -0.2500000   0.1678790   0.1843032  )
       134        Li     tau( 134) = (   0.2500000   0.1678790   0.3493934  )
       135        Li     tau( 135) = (   0.2500000   0.1678790   0.1714945  )
       136        Li     tau( 136) = (  -0.2500000   0.1678790   0.0064044  )
       137        Li     tau( 137) = (  -0.2500000   0.1678790   0.2832150  )
       138        Li     tau( 138) = (   0.2500000   0.1678790   0.2504816  )
       139        Li     tau( 139) = (   0.2500000   0.1678790   0.0725827  )
       140        Li     tau( 140) = (  -0.2500000   0.1678790   0.1053161  )
       141        Li     tau( 141) = (  -0.1793000   0.1618353   0.2832150  )
       142        Li     tau( 142) = (  -0.3207000   0.1739226   0.2832150  )
       143        Li     tau( 143) = (   0.1793000   0.1618353   0.2504816  )
       144        Li     tau( 144) = (   0.3207000   0.1739226   0.2504816  )
       145        Li     tau( 145) = (   0.1793000   0.1739226   0.0725827  )
       146        Li     tau( 146) = (   0.3207000   0.1618353   0.0725827  )
       147        Li     tau( 147) = (  -0.1793000   0.1739226   0.1053161  )
       148        Li     tau( 148) = (  -0.3207000   0.1618353   0.1053161  )

   Crystallographic axes

     site n.     atom                  positions (cryst. coord.)
         1        Ge     tau(   1) = (  0.1850200  0.3613800  0.6111000  )
         2        Ge     tau(   2) = (  0.3149800  0.1386200  0.6111000  )
         3        Ge     tau(   3) = (  0.3613800  0.1850200  0.8889000  )
         4        Ge     tau(   4) = (  0.1386200  0.3149800  0.8889000  )
         5        Ge     tau(   5) = (  0.8149800  0.6386200  0.3889000  )
         6        Ge     tau(   6) = (  0.6850200  0.8613800  0.3889000  )
         7        Ge     tau(   7) = (  0.6386200  0.8149800  0.1111000  )
         8        Ge     tau(   8) = (  0.8613800  0.6850200  0.1111000  )
         9        Ge     tau(   9) = (  0.9102300  0.1655700  0.4680000  )
        10        Ge     tau(  10) = (  0.5897700  0.3344300  0.4680000  )
        11        Ge     tau(  11) = (  0.1655700  0.9102300  0.0320000  )
        12        Ge     tau(  12) = (  0.3344300  0.5897700  0.0320000  )
        13        Ge     tau(  13) = (  0.0897700  0.8344300  0.5320000  )
        14        Ge     tau(  14) = (  0.4102300  0.6655700  0.5320000  )
        15        Ge     tau(  15) = (  0.8344300  0.0897700  0.9680000  )
        16        Ge     tau(  16) = (  0.6655700  0.4102300  0.9680000  )
        17        S      tau(  17) = (  0.3285800  0.4038200  0.6111000  )
        18        S      tau(  18) = (  0.1714200  0.0961800  0.6111000  )
        19        S      tau(  19) = (  0.4038200  0.3285800  0.8889000  )
        20        S      tau(  20) = (  0.0961800  0.1714200  0.8889000  )
        21        S      tau(  21) = (  0.6714200  0.5961800  0.3889000  )
        22        S      tau(  22) = (  0.8285800  0.9038200  0.3889000  )
        23        S      tau(  23) = (  0.5961800  0.6714200  0.1111000  )
        24        S      tau(  24) = (  0.9038200  0.8285800  0.1111000  )
        25        S      tau(  25) = (  0.0269000  0.1759000  0.5494000  )
        26        S      tau(  26) = (  0.4731000  0.3241000  0.5494000  )
        27        S      tau(  27) = (  0.1759000  0.0269000  0.9506000  )
        28        S      tau(  28) = (  0.3241000  0.4731000  0.9506000  )
        29        S      tau(  29) = (  0.9731000  0.8241000  0.4506000  )
        30        S      tau(  30) = (  0.5269000  0.6759000  0.4506000  )
        31        S      tau(  31) = (  0.8241000  0.9731000  0.0494000  )
        32        S      tau(  32) = (  0.6759000  0.5269000  0.0494000  )
        33        S      tau(  33) = (  0.7296000  0.9780000  0.5138000  )
        34        S      tau(  34) = (  0.7704000  0.5220000  0.5138000  )
        35        S      tau(  35) = (  0.9780000  0.7296000  0.9862000  )
        36        S      tau(  36) = (  0.5220000  0.7704000  0.9862000  )
        37        S      tau(  37) = (  0.2704000  0.0220000  0.4862000  )
        38        S      tau(  38) = (  0.2296000  0.4780000  0.4862000  )
        39        S      tau(  39) = (  0.0220000  0.2704000  0.0138000  )
        40        S      tau(  40) = (  0.4780000  0.2296000  0.0138000  )
        41        S      tau(  41) = (  0.9537000  0.2025000  0.3000000  )
        42        S      tau(  42) = (  0.5463000  0.2975000  0.3000000  )
        43        S      tau(  43) = (  0.2025000  0.9537000  0.2000000  )
        44        S      tau(  44) = (  0.2975000  0.5463000  0.2000000  )
        45        S      tau(  45) = (  0.0463000  0.7975000  0.7000000  )
        46        S      tau(  46) = (  0.4537000  0.7025000  0.7000000  )
        47        S      tau(  47) = (  0.7975000  0.0463000  0.8000000  )
        48        S      tau(  48) = (  0.7025000  0.4537000  0.8000000  )
        49        S      tau(  49) = (  0.9036000  0.2630000  0.5381000  )
        50        S      tau(  50) = (  0.5964000  0.2370000  0.5381000  )
        51        S      tau(  51) = (  0.2630000  0.9036000  0.9619000  )
        52        S      tau(  52) = (  0.2370000  0.5964000  0.9619000  )
        53        S      tau(  53) = (  0.0964000  0.7370000  0.4619000  )
        54        S      tau(  54) = (  0.4036000  0.7630000  0.4619000  )
        55        S      tau(  55) = (  0.7370000  0.0964000  0.0381000  )
        56        S      tau(  56) = (  0.7630000  0.4036000  0.0381000  )
        57        S      tau(  57) = (  0.3774000  0.1226000  0.7500000  )
        58        S      tau(  58) = (  0.1226000  0.3774000  0.7500000  )
        59        S      tau(  59) = (  0.6226000  0.8774000  0.2500000  )
        60        S      tau(  60) = (  0.8774000  0.6226000  0.2500000  )
        61        S      tau(  61) = (  0.6327600  0.0688400  0.6553000  )
        62        S      tau(  62) = (  0.8672400  0.4311600  0.6553000  )
        63        S      tau(  63) = (  0.0688400  0.6327600  0.8447000  )
        64        S      tau(  64) = (  0.4311600  0.8672400  0.8447000  )
        65        S      tau(  65) = (  0.3672400  0.9311600  0.3447000  )
        66        S      tau(  66) = (  0.1327600  0.5688400  0.3447000  )
        67        S      tau(  67) = (  0.9311600  0.3672400  0.1553000  )
        68        S      tau(  68) = (  0.5688400  0.1327600  0.1553000  )
        69        S      tau(  69) = (  0.3552000  0.9216000  0.6634000  )
        70        S      tau(  70) = (  0.1448000  0.5784000  0.6634000  )
        71        S      tau(  71) = (  0.9216000  0.3552000  0.8366000  )
        72        S      tau(  72) = (  0.5784000  0.1448000  0.8366000  )
        73        S      tau(  73) = (  0.6448000  0.0784000  0.3366000  )
        74        S      tau(  74) = (  0.8552000  0.4216000  0.3366000  )
        75        S      tau(  75) = (  0.0784000  0.6448000  0.1634000  )
        76        S      tau(  76) = (  0.4216000  0.8552000  0.1634000  )
        77        S      tau(  77) = (  0.1249300  0.1900700  0.1533000  )
        78        S      tau(  78) = (  0.3750700  0.3099300  0.1533000  )
        79        S      tau(  79) = (  0.1900700  0.1249300  0.3467000  )
        80        S      tau(  80) = (  0.3099300  0.3750700  0.3467000  )
        81        S      tau(  81) = (  0.8750700  0.8099300  0.8467000  )
        82        S      tau(  82) = (  0.6249300  0.6900700  0.8467000  )
        83        S      tau(  83) = (  0.8099300  0.8750700  0.6533000  )
        84        S      tau(  84) = (  0.6900700  0.6249300  0.6533000  )
        85        P      tau(  85) = (  0.0004300  0.4995700  0.7500000  )
        86        P      tau(  86) = (  0.4995700  0.0004300  0.7500000  )
        87        P      tau(  87) = (  0.9995700  0.5004300  0.2500000  )
        88        P      tau(  88) = (  0.5004300  0.9995700  0.2500000  )
        89        P      tau(  89) = (  0.2500000  0.2500000  0.2500000  )
        90        P      tau(  90) = (  0.7500000  0.7500000  0.7500000  )
        91        Li     tau(  91) = (  0.4406000  0.5664000  0.2728000  )
        92        Li     tau(  92) = (  0.0594000  0.9336000  0.2728000  )
        93        Li     tau(  93) = (  0.5664000  0.4406000  0.2272000  )
        94        Li     tau(  94) = (  0.9336000  0.0594000  0.2272000  )
        95        Li     tau(  95) = (  0.5594000  0.4336000  0.7272000  )
        96        Li     tau(  96) = (  0.9406000  0.0664000  0.7272000  )
        97        Li     tau(  97) = (  0.4336000  0.5594000  0.7728000  )
        98        Li     tau(  98) = (  0.0664000  0.9406000  0.7728000  )
        99        Li     tau(  99) = (  0.9146000  0.5854000  0.7500000  )
       100        Li     tau( 100) = (  0.5854000  0.9146000  0.7500000  )
       101        Li     tau( 101) = (  0.0854000  0.4146000  0.2500000  )
       102        Li     tau( 102) = (  0.4146000  0.0854000  0.2500000  )
       103        Li     tau( 103) = (  0.7430000  0.4030000  0.7500000  )
       104        Li     tau( 104) = (  0.7570000  0.0970000  0.7500000  )
       105        Li     tau( 105) = (  0.4030000  0.7430000  0.7500000  )
       106        Li     tau( 106) = (  0.0970000  0.7570000  0.7500000  )
       107        Li     tau( 107) = (  0.2570000  0.5970000  0.2500000  )
       108        Li     tau( 108) = (  0.2430000  0.9030000  0.2500000  )
       109        Li     tau( 109) = (  0.5970000  0.2570000  0.2500000  )
       110        Li     tau( 110) = (  0.9030000  0.2430000  0.2500000  )
       111        Li     tau( 111) = (  0.9158000  0.5326000  0.4889000  )
       112        Li     tau( 112) = (  0.5842000  0.9674000  0.4889000  )
       113        Li     tau( 113) = (  0.5326000  0.9158000  0.0111000  )
       114        Li     tau( 114) = (  0.9674000  0.5842000  0.0111000  )
       115        Li     tau( 115) = (  0.0842000  0.4674000  0.5111000  )
       116        Li     tau( 116) = (  0.4158000  0.0326000  0.5111000  )
       117        Li     tau( 117) = (  0.4674000  0.0842000  0.9889000  )
       118        Li     tau( 118) = (  0.0326000  0.4158000  0.9889000  )
       119        Li     tau( 119) = (  0.2500000  0.2500000  0.7500000  )
       120        Li     tau( 120) = (  0.7500000  0.7500000  0.2500000  )
       121        Li     tau( 121) = (  0.7235000  0.7105000  0.0010000  )
       122        Li     tau( 122) = (  0.7765000  0.7895000  0.0010000  )
       123        Li     tau( 123) = (  0.7105000  0.7235000  0.4990000  )
       124        Li     tau( 124) = (  0.7895000  0.7765000  0.4990000  )
       125        Li     tau( 125) = (  0.2765000  0.2895000  0.9990000  )
       126        Li     tau( 126) = (  0.2235000  0.2105000  0.9990000  )
       127        Li     tau( 127) = (  0.2895000  0.2765000  0.5010000  )
       128        Li     tau( 128) = (  0.2105000  0.2235000  0.5010000  )
       129        Li     tau( 129) = (  0.1683000  0.3317000  0.2500000  )
       130        Li     tau( 130) = (  0.3317000  0.1683000  0.2500000  )
       131        Li     tau( 131) = (  0.8317000  0.6683000  0.7500000  )
       132        Li     tau( 132) = (  0.6683000  0.8317000  0.7500000  )
       133        Li     tau( 133) = (  0.2500000  0.7500000  0.5180000  )
       134        Li     tau( 134) = (  0.7500000  0.2500000  0.9820000  )
       135        Li     tau( 135) = (  0.7500000  0.2500000  0.4820000  )
       136        Li     tau( 136) = (  0.2500000  0.7500000  0.0180000  )
       137        Li     tau( 137) = (  0.2500000  0.7500000  0.7960000  )
       138        Li     tau( 138) = (  0.7500000  0.2500000  0.7040000  )
       139        Li     tau( 139) = (  0.7500000  0.2500000  0.2040000  )
       140        Li     tau( 140) = (  0.2500000  0.7500000  0.2960000  )
       141        Li     tau( 141) = (  0.3027000  0.6613000  0.7960000  )
       142        Li     tau( 142) = (  0.1973000  0.8387000  0.7960000  )
       143        Li     tau( 143) = (  0.6613000  0.3027000  0.7040000  )
       144        Li     tau( 144) = (  0.8387000  0.1973000  0.7040000  )
       145        Li     tau( 145) = (  0.6973000  0.3387000  0.2040000  )
       146        Li     tau( 146) = (  0.8027000  0.1613000  0.2040000  )
       147        Li     tau( 147) = (  0.3387000  0.6973000  0.2960000  )
       148        Li     tau( 148) = (  0.1613000  0.8027000  0.2960000  )

     number of k points=    15  Marzari-Vanderbilt smearing, width (Ry)=  0.0200
                       cart. coord. in units 2pi/alat
        k(    1) = (   0.0000000   0.0000000   0.0000000), wk =   0.0625000
        k(    2) = (   0.0000000   0.0000000   0.7026464), wk =   0.1250000
        k(    3) = (   0.0000000   0.0000000  -1.4052927), wk =   0.0625000
        k(    4) = (  -0.2500000   0.7445840   0.0000000), wk =   0.1250000
        k(    5) = (  -0.2500000   0.7445840   0.7026464), wk =   0.2500000
        k(    6) = (  -0.2500000   0.7445840  -1.4052927), wk =   0.1250000
        k(    7) = (   0.5000000  -1.4891680   0.0000000), wk =   0.1250000
        k(    8) = (   0.5000000  -1.4891680   0.7026464), wk =   0.2500000
        k(    9) = (   0.5000000  -1.4891680  -1.4052927), wk =   0.1250000
        k(   10) = (  -0.7500000  -0.7445840   0.0000000), wk =   0.1250000
        k(   11) = (  -0.7500000  -0.7445840   0.7026464), wk =   0.2500000
        k(   12) = (  -0.7500000  -0.7445840  -1.4052927), wk =   0.1250000
        k(   13) = (   0.0000000  -2.9783361   0.0000000), wk =   0.0625000
        k(   14) = (   0.0000000  -2.9783361   0.7026464), wk =   0.1250000
        k(   15) = (   0.0000000  -2.9783361  -1.4052927), wk =   0.0625000

                       cryst. coord.
        k(    1) = (   0.0000000   0.0000000   0.0000000), wk =   0.0625000
        k(    2) = (   0.0000000   0.0000000   0.2500000), wk =   0.1250000
        k(    3) = (   0.0000000   0.0000000  -0.5000000), wk =   0.0625000
        k(    4) = (   0.0000000   0.2500000   0.0000000), wk =   0.1250000
        k(    5) = (   0.0000000   0.2500000   0.2500000), wk =   0.2500000
        k(    6) = (   0.0000000   0.2500000  -0.5000000), wk =   0.1250000
        k(    7) = (   0.0000000  -0.5000000   0.0000000), wk =   0.1250000
        k(    8) = (   0.0000000  -0.5000000   0.2500000), wk =   0.2500000
        k(    9) = (   0.0000000  -0.5000000  -0.5000000), wk =   0.1250000
        k(   10) = (  -0.5000000   0.2500000   0.0000000), wk =   0.1250000
        k(   11) = (  -0.5000000   0.2500000   0.2500000), wk =   0.2500000
        k(   12) = (  -0.5000000   0.2500000  -0.5000000), wk =   0.1250000
        k(   13) = (  -0.5000000  -0.5000000   0.0000000), wk =   0.0625000
        k(   14) = (  -0.5000000  -0.5000000   0.2500000), wk =   0.1250000
        k(   15) = (  -0.5000000  -0.5000000  -0.5000000), wk =   0.0625000

     Dense  grid:  1730739 G-vectors     FFT dimensions: ( 216, 216, 144)

     Smooth grid:   611689 G-vectors     FFT dimensions: ( 144, 144,  96)

     Dynamical RAM for                 wfc:      73.23 MB

     Dynamical RAM for     wfc (w. buffer):    1171.66 MB

     Dynamical RAM for           str. fact:      13.20 MB

     Dynamical RAM for           local pot:       0.00 MB

     Dynamical RAM for          nlocal pot:     312.46 MB

     Dynamical RAM for                qrad:      11.49 MB

     Dynamical RAM for          rho,v,vnew:      29.13 MB

     Dynamical RAM for               rhoin:       9.71 MB

     Dynamical RAM for            rho*nmix:      52.82 MB

     Dynamical RAM for           G-vectors:      12.96 MB

     Dynamical RAM for          h,s,v(r/c):      11.54 MB

     Dynamical RAM for          <psi|beta>:      16.41 MB

     Dynamical RAM for                 psi:     146.46 MB

     Dynamical RAM for                hpsi:     146.46 MB

     Dynamical RAM for                spsi:     146.46 MB

     Dynamical RAM for      wfcinit/wfcrot:     152.23 MB

     Dynamical RAM for           addusdens:     838.49 MB

     Dynamical RAM for          addusforce:    1282.76 MB

     Dynamical RAM for         addusstress:     663.53 MB

     Estimated static dynamical RAM per process >       1.57 GB

     Estimated max dynamical RAM per process >       2.88 GB

     Estimated total dynamical RAM >      23.01 GB

     Initial potential from superposition of free atoms

     starting charge     809.8395, renormalised to     836.0000
     Starting wfcs are  730 randomized atomic wfcs

     total cpu time spent up to now is     3490.8 secs

     Self-consistent Calculation

     iteration #  1     ecut=    40.00 Ry     beta= 0.70
     Davidson diagonalization with overlap

---- Real-time Memory Report at c_bands before calling an iterative solver
          1828 MiB given to the printing process from OS
             0 MiB allocation reported by mallinfo(arena+hblkhd)
        166606 MiB available memory on the node where the printing process lives
------------------
     ethr =  1.00E-02,  avg # of iterations =  6.3

     total cpu time spent up to now is    12775.8 secs

     total energy              =   -5654.17255667 Ry
     estimated scf accuracy    <     394.60557518 Ry

     iteration #  2     ecut=    40.00 Ry     beta= 0.70
     Davidson diagonalization with overlap

---- Real-time Memory Report at c_bands before calling an iterative solver
          2547 MiB given to the printing process from OS
             0 MiB allocation reported by mallinfo(arena+hblkhd)
        164051 MiB available memory on the node where the printing process lives
------------------
     ethr =  1.00E-02,  avg # of iterations = 13.5

     total cpu time spent up to now is    42827.0 secs

     total energy              =   -5314.67525169 Ry
     estimated scf accuracy    <   15150.96783594 Ry

     iteration #  3     ecut=    40.00 Ry     beta= 0.70
     Davidson diagonalization with overlap

---- Real-time Memory Report at c_bands before calling an iterative solver
          2563 MiB given to the printing process from OS
             0 MiB allocation reported by mallinfo(arena+hblkhd)
        162895 MiB available memory on the node where the printing process lives
------------------
     ethr =  1.00E-02,  avg # of iterations = 10.3

     total cpu time spent up to now is    66148.7 secs

     total energy              =   -5809.24711344 Ry
     estimated scf accuracy    <    2262.46035004 Ry

     iteration #  4     ecut=    40.00 Ry     beta= 0.70
     Davidson diagonalization with overlap

---- Real-time Memory Report at c_bands before calling an iterative solver
          2568 MiB given to the printing process from OS
             0 MiB allocation reported by mallinfo(arena+hblkhd)
        162848 MiB available memory on the node where the printing process lives
------------------
     ethr =  1.00E-02,  avg # of iterations = 11.1

     total cpu time spent up to now is    82003.8 secs

     total energy              =   -5973.85982765 Ry
     estimated scf accuracy    <     125.82728773 Ry

     iteration #  5     ecut=    40.00 Ry     beta= 0.70
     Davidson diagonalization with overlap

---- Real-time Memory Report at c_bands before calling an iterative solver
          2573 MiB given to the printing process from OS
             0 MiB allocation reported by mallinfo(arena+hblkhd)
        174224 MiB available memory on the node where the printing process lives
------------------
     ethr =  1.00E-02,  avg # of iterations =  4.7

     total cpu time spent up to now is    88879.1 secs

     total energy              =   -5981.69509932 Ry
     estimated scf accuracy    <      24.08561647 Ry

     iteration #  6     ecut=    40.00 Ry     beta= 0.70
     Davidson diagonalization with overlap

---- Real-time Memory Report at c_bands before calling an iterative solver
          2575 MiB given to the printing process from OS
             0 MiB allocation reported by mallinfo(arena+hblkhd)
        174200 MiB available memory on the node where the printing process lives
------------------
     ethr =  2.88E-03,  avg # of iterations =  2.3

     total cpu time spent up to now is    95706.5 secs

     total energy              =   -5982.68343670 Ry
     estimated scf accuracy    <       9.08095111 Ry

     iteration #  7     ecut=    40.00 Ry     beta= 0.70
     Davidson diagonalization with overlap

---- Real-time Memory Report at c_bands before calling an iterative solver
          2580 MiB given to the printing process from OS
             0 MiB allocation reported by mallinfo(arena+hblkhd)
        174132 MiB available memory on the node where the printing process lives
------------------
     ethr =  1.09E-03,  avg # of iterations =  2.3

     total cpu time spent up to now is   102486.7 secs

     total energy              =   -5982.29311182 Ry
     estimated scf accuracy    <       7.05764205 Ry

     iteration #  8     ecut=    40.00 Ry     beta= 0.70
     Davidson diagonalization with overlap

---- Real-time Memory Report at c_bands before calling an iterative solver
          2583 MiB given to the printing process from OS
             0 MiB allocation reported by mallinfo(arena+hblkhd)
        174138 MiB available memory on the node where the printing process lives
------------------
     ethr =  8.44E-04,  avg # of iterations = 10.6

     total cpu time spent up to now is   111741.0 secs

     total energy              =   -5982.81116597 Ry
     estimated scf accuracy    <       0.59080373 Ry

     iteration #  9     ecut=    40.00 Ry     beta= 0.70
     Davidson diagonalization with overlap

---- Real-time Memory Report at c_bands before calling an iterative solver
          2591 MiB given to the printing process from OS
             0 MiB allocation reported by mallinfo(arena+hblkhd)
        174109 MiB available memory on the node where the printing process lives
------------------
     ethr =  7.07E-05,  avg # of iterations = 10.8

     total cpu time spent up to now is   122268.5 secs

     total energy              =   -5982.87895646 Ry
     estimated scf accuracy    <       0.29021454 Ry

     iteration # 10     ecut=    40.00 Ry     beta= 0.70
     Davidson diagonalization with overlap

---- Real-time Memory Report at c_bands before calling an iterative solver
          2594 MiB given to the printing process from OS
             0 MiB allocation reported by mallinfo(arena+hblkhd)
        160445 MiB available memory on the node where the printing process lives
------------------
     c_bands:  1 eigenvalues not converged
     c_bands:  2 eigenvalues not converged
     c_bands:  1 eigenvalues not converged
     c_bands:  1 eigenvalues not converged
     c_bands:  1 eigenvalues not converged
     ethr =  3.47E-05,  avg # of iterations = 16.0

     total cpu time spent up to now is   130542.6 secs

     total energy              =   -5982.90393422 Ry
     estimated scf accuracy    <       0.10058740 Ry

     iteration # 11     ecut=    40.00 Ry     beta= 0.70
     Davidson diagonalization with overlap

---- Real-time Memory Report at c_bands before calling an iterative solver
          2600 MiB given to the printing process from OS
             0 MiB allocation reported by mallinfo(arena+hblkhd)
        159050 MiB available memory on the node where the printing process lives
------------------
     c_bands:  1 eigenvalues not converged
     c_bands:  1 eigenvalues not converged
     c_bands:  1 eigenvalues not converged
     c_bands:  1 eigenvalues not converged
     c_bands:  1 eigenvalues not converged
     ethr =  1.20E-05,  avg # of iterations = 14.0

     total cpu time spent up to now is   138561.6 secs

     total energy              =   -5982.91830334 Ry
     estimated scf accuracy    <       0.03056128 Ry

     iteration # 12     ecut=    40.00 Ry     beta= 0.70
     Davidson diagonalization with overlap

---- Real-time Memory Report at c_bands before calling an iterative solver
          2600 MiB given to the printing process from OS
             0 MiB allocation reported by mallinfo(arena+hblkhd)
        161214 MiB available memory on the node where the printing process lives
------------------
     c_bands:  2 eigenvalues not converged
     c_bands:  1 eigenvalues not converged
     c_bands:  2 eigenvalues not converged
     c_bands:  1 eigenvalues not converged
     c_bands:  1 eigenvalues not converged
     c_bands:  2 eigenvalues not converged
     c_bands:  2 eigenvalues not converged
     c_bands:  1 eigenvalues not converged
     c_bands:  5 eigenvalues not converged
     c_bands:  1 eigenvalues not converged
     ethr =  3.66E-06,  avg # of iterations = 18.3

     total cpu time spent up to now is   148134.3 secs

     total energy              =   -5982.92177502 Ry
     estimated scf accuracy    <       0.00106811 Ry

     iteration # 13     ecut=    40.00 Ry     beta= 0.70
     Davidson diagonalization with overlap

---- Real-time Memory Report at c_bands before calling an iterative solver
          2600 MiB given to the printing process from OS
             0 MiB allocation reported by mallinfo(arena+hblkhd)
        160244 MiB available memory on the node where the printing process lives
------------------
     c_bands:  1 eigenvalues not converged
     c_bands:  1 eigenvalues not converged
     ethr =  1.28E-07,  avg # of iterations = 10.7

     total cpu time spent up to now is   163398.8 secs

     total energy              =   -5982.92303078 Ry
     estimated scf accuracy    <       0.00166685 Ry

     iteration # 14     ecut=    40.00 Ry     beta= 0.70
     Davidson diagonalization with overlap

---- Real-time Memory Report at c_bands before calling an iterative solver
          2600 MiB given to the printing process from OS
             0 MiB allocation reported by mallinfo(arena+hblkhd)
        160309 MiB available memory on the node where the printing process lives
------------------
     c_bands:  1 eigenvalues not converged
     ethr =  1.28E-07,  avg # of iterations =  3.7

     total cpu time spent up to now is   171034.1 secs

     total energy              =   -5982.92307390 Ry
     estimated scf accuracy    <       0.00025093 Ry

     iteration # 15     ecut=    40.00 Ry     beta= 0.70
     Davidson diagonalization with overlap

---- Real-time Memory Report at c_bands before calling an iterative solver
          2600 MiB given to the printing process from OS
             0 MiB allocation reported by mallinfo(arena+hblkhd)
        158751 MiB available memory on the node where the printing process lives
------------------
     c_bands:  1 eigenvalues not converged
     ethr =  3.00E-08,  avg # of iterations =  5.7

     total cpu time spent up to now is   179694.4 secs

     total energy              =   -5982.92311797 Ry
     estimated scf accuracy    <       0.00009920 Ry

     iteration # 16     ecut=    40.00 Ry     beta= 0.70
     Davidson diagonalization with overlap

---- Real-time Memory Report at c_bands before calling an iterative solver
          2600 MiB given to the printing process from OS
             0 MiB allocation reported by mallinfo(arena+hblkhd)
        146653 MiB available memory on the node where the printing process lives
------------------
     ethr =  1.19E-08,  avg # of iterations =  2.6

     total cpu time spent up to now is   187239.3 secs

     total energy              =   -5982.92313362 Ry
     estimated scf accuracy    <       0.00000473 Ry

     iteration # 17     ecut=    40.00 Ry     beta= 0.70
     Davidson diagonalization with overlap

---- Real-time Memory Report at c_bands before calling an iterative solver
          2600 MiB given to the printing process from OS
             0 MiB allocation reported by mallinfo(arena+hblkhd)
        165950 MiB available memory on the node where the printing process lives
------------------
     ethr =  5.66E-10,  avg # of iterations =  5.9

     total cpu time spent up to now is   200709.4 secs

     total energy              =   -5982.92313750 Ry
     estimated scf accuracy    <       0.00000335 Ry

     iteration # 18     ecut=    40.00 Ry     beta= 0.70
     Davidson diagonalization with overlap

---- Real-time Memory Report at c_bands before calling an iterative solver
          2600 MiB given to the printing process from OS
             0 MiB allocation reported by mallinfo(arena+hblkhd)
        165939 MiB available memory on the node where the printing process lives
------------------
     ethr =  4.00E-10,  avg # of iterations =  2.7

     total cpu time spent up to now is   209032.6 secs

     total energy              =   -5982.92313795 Ry
     estimated scf accuracy    <       0.00000065 Ry

     iteration # 19     ecut=    40.00 Ry     beta= 0.70
     Davidson diagonalization with overlap

---- Real-time Memory Report at c_bands before calling an iterative solver
          2604 MiB given to the printing process from OS
             0 MiB allocation reported by mallinfo(arena+hblkhd)
        152622 MiB available memory on the node where the printing process lives
------------------
     ethr =  7.73E-11,  avg # of iterations =  3.8

     total cpu time spent up to now is   218072.1 secs

     End of self-consistent calculation

          k = 0.0000 0.0000 0.0000 ( 76475 PWs)   bands (ev):

   -50.8997 -50.8997 -50.8997 -50.8997 -44.4905 -44.4905 -44.4905 -44.4905
   -44.4898 -44.4898 -44.4898 -44.4898 -41.9019 -41.9019 -41.9018 -41.9018
   -41.8823 -41.8823 -41.8822 -41.8822 -41.7219 -41.7219 -41.7219 -41.7219
   -41.4321 -41.4321 -41.4321 -41.4321 -41.1220 -41.1220 -41.1220 -41.1220
   -41.0917 -41.0917 -41.0917 -41.0917 -41.0916 -41.0916 -41.0915 -41.0915
   -41.0567 -41.0567 -41.0567 -41.0567 -40.9124 -40.9124 -40.9124 -40.9124
   -40.7753 -40.7753 -40.3228 -40.3228 -40.3228 -40.3228 -40.3227 -40.3227
   -40.3227 -40.3227 -20.0443 -20.0443 -20.0442 -20.0442 -20.0431 -20.0431
   -20.0431 -20.0431 -20.0157 -20.0157 -20.0157 -20.0157 -20.0126 -20.0126
   -20.0125 -20.0125 -20.0091 -20.0091 -20.0091 -20.0091 -19.9952 -19.9952
   -19.9952 -19.9952 -19.9688 -19.9688 -19.9688 -19.9688 -19.9669 -19.9669
   -19.9669 -19.9669 -19.9538 -19.9538 -19.9537 -19.9537 -19.9533 -19.9533
   -19.9533 -19.9533 -19.6323 -19.6323 -19.6323 -19.6323 -19.6323 -19.6323
   -19.6323 -19.6323 -19.6137 -19.6137 -19.6137 -19.6137 -19.6136 -19.6136
   -19.6136 -19.6136 -19.6037 -19.6037 -19.6037 -19.6037 -19.6037 -19.6037
   -19.6037 -19.6037 -19.5627 -19.5627 -19.5627 -19.5627 -19.5626 -19.5626
   -19.5626 -19.5626 -19.5479 -19.5479 -19.5479 -19.5479 -19.5479 -19.5479
   -19.5479 -19.5479 -11.7876 -11.7866 -11.1781 -11.1641 -11.1628 -11.1502
    -9.7437  -9.7350  -9.5106  -9.4858  -9.3886  -9.3607  -9.0781  -9.0653
    -8.9944  -8.9920  -8.9866  -8.9295  -8.8872  -8.8719  -8.8704  -8.8648
    -8.7870  -8.7379  -8.6507  -8.6473  -8.6219  -8.5934  -8.5201  -8.4205
    -8.4183  -8.3134  -8.3016  -8.2673  -8.2561  -8.2382  -7.9767  -7.9456
    -7.9197  -7.9113  -7.9033  -7.8882  -7.8371  -7.8196  -7.7998  -7.7913
    -7.7536  -7.7517  -7.7424  -7.7394  -7.6937  -7.6931  -7.6329  -7.6157
    -7.5829  -7.5631  -7.5582  -7.5554  -7.5475  -7.5442  -7.3665  -7.3655
    -7.2968  -7.2921  -7.2636  -7.2543  -7.2462  -7.2425  -4.1863  -4.0892
    -4.0877  -3.9565  -3.9430  -3.9372  -3.8509  -3.8468  -3.2998  -3.2928
    -3.1210  -3.0872  -2.8039  -2.8036  -2.7711  -2.7608  -2.4274  -2.3211
    -2.1611  -2.1395  -2.0372  -1.9837  -1.3712  -1.3573  -1.3540  -1.3431
    -1.3278  -1.2645  -1.2386  -1.1626  -1.1442  -1.1139  -1.0071  -0.9977
    -0.9692  -0.9503  -0.9032  -0.7571  -0.7323  -0.6822  -0.3465  -0.3419
    -0.3139  -0.2441  -0.2188  -0.1441  -0.1232  -0.0820  -0.0321   0.1343
     0.1815   0.2096   0.2136   0.2450   0.2670   0.2759   0.2777   0.3016
     0.3137   0.3988   0.4204   0.4349   0.4732   0.4935   0.5450   0.5859
     0.5873   0.6264   0.7103   0.7113   0.8174   0.8279   0.8383   0.8474
     0.8703   0.9307   0.9617   0.9668   0.9742   0.9873   1.0292   1.0610
     1.0754   1.1325   1.1590   1.1710   1.1897   1.2007   1.2080   1.2192
     1.2240   1.2706   1.3026   1.3498   1.3501   1.3574   1.3707   1.4045
     1.4625   1.4697   1.4769   1.5155   1.5161   1.5234   1.5559   1.6304
     1.6344   1.6370   1.6780   1.7263   1.7273   1.7483   1.7518   1.7643
     1.7900   1.7948   1.8009   1.8576   1.8765   1.8873   1.9332   1.9722
     1.9792   2.0443   2.0573   2.0597   2.0873   2.1322   2.1442   2.1582
     2.1616   2.1648   2.1845   2.1917   2.1985   2.2009   2.2774   2.2790
     2.3548   2.3728   2.3843   2.3940   2.4434   2.4643   2.4648   2.4855
     2.5233   2.5643   2.6011   2.6305   2.6518   2.6784   2.6885   2.7016
     2.7301   2.7327   2.7438   2.7767   2.8042   2.8103   2.8144   2.8235
     2.8506   2.8544   2.8605   2.8837   2.9332   2.9433   2.9592   2.9628
     2.9730   2.9847   3.0006   3.0269   3.0800   3.1057   3.1151   3.1477
     3.1742   3.1743   3.1942   3.2561   3.2573   3.2822   3.2853   3.3038
     3.3062   3.3184   3.3348   3.3861   3.3994   3.4161   3.4281   3.4845
     3.5214   3.5267   3.5656   3.5712   3.6397   3.6780   3.7759   3.8290
     3.8429   3.8479   6.2290   6.3922   6.4702   6.5475   6.6125   6.6680
     6.7114   6.7158   6.7298   6.8006   6.9133   6.9313   6.9334   7.0440
     7.0761   7.0971   7.0993   7.1892   7.2567   7.2618   7.2667   7.2897
     7.4314   7.4801   7.5093   7.5392   7.5629   7.5765   7.6157   7.6890
     7.7606   7.7651   7.8794   7.8816   7.8916   7.8986   7.9240   7.9561
     7.9724   8.0377   8.0616   8.1744   8.1810   8.2253   8.2572   8.2597
     8.3320   8.3382   8.3880   8.3972   8.4045   8.4066   8.4827   8.5166
     8.5455   8.5601   8.5658   8.6029   8.6077   8.6448   8.6567   8.6647
     8.7183   8.7612   8.7946   8.8638   8.8663   8.8755   8.9328   8.9410
     8.9445   8.9447   8.9519   8.9815   9.0004   9.0626   9.0861   9.1001
     9.1432   9.2021   9.2803   9.2866   9.2917   9.3017   9.3574   9.3932
     9.4261   9.4338   9.4401   9.4786   9.5561   9.5928

     occupation numbers 
     1.0000   1.0000   1.0000   1.0000   1.0000   1.0000   1.0000   1.0000
     1.0000   1.0000   1.0000   1.0000   1.0000   1.0000   1.0000   1.0000
     1.0000   1.0000   1.0000   1.0000   1.0000   1.0000   1.0000   1.0000
     1.0000   1.0000   1.0000   1.0000   1.0000   1.0000   1.0000   1.0000
     1.0000   1.0000   1.0000   1.0000   1.0000   1.0000   1.0000   1.0000
     1.0000   1.0000   1.0000   1.0000   1.0000   1.0000   1.0000   1.0000
     1.0000   1.0000   1.0000   1.0000   1.0000   1.0000   1.0000   1.0000
     1.0000   1.0000   1.0000   1.0000   1.0000   1.0000   1.0000   1.0000
     1.0000   1.0000   1.0000   1.0000   1.0000   1.0000   1.0000   1.0000
     1.0000   1.0000   1.0000   1.0000   1.0000   1.0000   1.0000   1.0000
     1.0000   1.0000   1.0000   1.0000   1.0000   1.0000   1.0000   1.0000
     1.0000   1.0000   1.0000   1.0000   1.0000   1.0000   1.0000   1.0000
     1.0000   1.0000   1.0000   1.0000   1.0000   1.0000   1.0000   1.0000
     1.0000   1.0000   1.0000   1.0000   1.0000   1.0000   1.0000   1.0000
     1.0000   1.0000   1.0000   1.0000   1.0000   1.0000   1.0000   1.0000
     1.0000   1.0000   1.0000   1.0000   1.0000   1.0000   1.0000   1.0000
     1.0000   1.0000   1.0000   1.0000   1.0000   1.0000   1.0000   1.0000
     1.0000   1.0000   1.0000   1.0000   1.0000   1.0000   1.0000   1.0000
     1.0000   1.0000   1.0000   1.0000   1.0000   1.0000   1.0000   1.0000
     1.0000   1.0000   1.0000   1.0000   1.0000   1.0000   1.0000   1.0000
     1.0000   1.0000   1.0000   1.0000   1.0000   1.0000   1.0000   1.0000
     1.0000   1.0000   1.0000   1.0000   1.0000   1.0000   1.0000   1.0000
     1.0000   1.0000   1.0000   1.0000   1.0000   1.0000   1.0000   1.0000
     1.0000   1.0000   1.0000   1.0000   1.0000   1.0000   1.0000   1.0000
     1.0000   1.0000   1.0000   1.0000   1.0000   1.0000   1.0000   1.0000
     1.0000   1.0000   1.0000   1.0000   1.0000   1.0000   1.0000   1.0000
     1.0000   1.0000   1.0000   1.0000   1.0000   1.0000   1.0000   1.0000
     1.0000   1.0000   1.0000   1.0000   1.0000   1.0000   1.0000   1.0000
     1.0000   1.0000   1.0000   1.0000   1.0000   1.0000   1.0000   1.0000
     1.0000   1.0000   1.0000   1.0000   1.0000   1.0000   1.0000   1.0000
     1.0000   1.0000   1.0000   1.0000   1.0000   1.0000   1.0000   1.0000
     1.0000   1.0000   1.0000   1.0000   1.0000   1.0000   1.0000   1.0000
     1.0000   1.0000   1.0000   1.0000   1.0000   1.0000   1.0000   1.0000
     1.0000   1.0000   1.0000   1.0000   1.0000   1.0000   1.0000   1.0000
     1.0000   1.0000   1.0000   1.0000   1.0000   1.0000   1.0000   1.0000
     1.0000   1.0000   1.0000   1.0000   1.0000   1.0000   1.0000   1.0000
     1.0000   1.0000   1.0000   1.0000   1.0000   1.0000   1.0000   1.0000
     1.0000   1.0000   1.0000   1.0000   1.0000   1.0000   1.0000   1.0000
     1.0000   1.0000   1.0000   1.0000   1.0000   1.0000   1.0000   1.0000
     1.0000   1.0000   1.0000   1.0000   1.0000   1.0000   1.0000   1.0000
     1.0000   1.0000   1.0000   1.0000   1.0000   1.0000   1.0000   1.0000
     1.0000   1.0000   1.0000   1.0000   1.0000   1.0000   1.0000   1.0000
     1.0000   1.0000   1.0000   1.0000   1.0000   1.0000   1.0000   1.0000
     1.0000   1.0000   1.0000   1.0000   1.0000   1.0000   1.0000   1.0000
     1.0000   1.0000   1.0000   1.0000   1.0000   1.0000   1.0000   1.0000
     1.0000   1.0000   1.0000   1.0000   1.0000   1.0000   1.0000   1.0000
     1.0000   1.0000   1.0000   1.0000   1.0000   1.0000   1.0000   1.0000
     1.0000   1.0000   1.0000   1.0000   1.0000   1.0000   1.0000   1.0000
     1.0000   1.0000   1.0000   1.0000   1.0000   1.0000   1.0000   1.0000
     1.0000   1.0000   1.0000   1.0000   1.0000   1.0000   1.0000   1.0000
     1.0000   1.0000   1.0000   1.0000   1.0000   1.0000   1.0000   1.0000
     1.0000   1.0000   1.0505   1.0797   1.0303   0.9105   0.7591   0.6091
     0.4898   0.4779   0.4408   0.2737   0.0998   0.0825   0.0807   0.0208
     0.0132   0.0097   0.0094   0.0022   0.0006   0.0006   0.0005   0.0003
     0.0000   0.0000   0.0000   0.0000   0.0000   0.0000   0.0000   0.0000
     0.0000   0.0000   0.0000   0.0000   0.0000   0.0000   0.0000   0.0000
     0.0000   0.0000   0.0000   0.0000   0.0000   0.0000   0.0000   0.0000
     0.0000   0.0000   0.0000   0.0000   0.0000   0.0000   0.0000   0.0000
     0.0000   0.0000   0.0000   0.0000   0.0000   0.0000   0.0000   0.0000
     0.0000   0.0000   0.0000   0.0000   0.0000   0.0000   0.0000   0.0000
     0.0000   0.0000   0.0000   0.0000   0.0000   0.0000   0.0000   0.0000
     0.0000   0.0000   0.0000   0.0000   0.0000   0.0000   0.0000   0.0000
     0.0000   0.0000   0.0000   0.0000   0.0000   0.0000

          k = 0.0000 0.0000 0.7026 ( 76536 PWs)   bands (ev):

   -50.8997 -50.8997 -50.8997 -50.8997 -44.4905 -44.4905 -44.4905 -44.4905
   -44.4898 -44.4898 -44.4898 -44.4898 -41.9019 -41.9019 -41.9018 -41.9018
   -41.8823 -41.8823 -41.8822 -41.8822 -41.7219 -41.7219 -41.7219 -41.7219
   -41.4321 -41.4321 -41.4321 -41.4321 -41.1220 -41.1220 -41.1220 -41.1220
   -41.0917 -41.0917 -41.0917 -41.0917 -41.0916 -41.0916 -41.0915 -41.0915
   -41.0567 -41.0567 -41.0567 -41.0567 -40.9124 -40.9124 -40.9124 -40.9124
   -40.7753 -40.7753 -40.3228 -40.3228 -40.3228 -40.3228 -40.3227 -40.3227
   -40.3227 -40.3227 -20.0443 -20.0443 -20.0442 -20.0442 -20.0431 -20.0431
   -20.0431 -20.0431 -20.0157 -20.0157 -20.0157 -20.0157 -20.0126 -20.0126
   -20.0125 -20.0125 -20.0091 -20.0091 -20.0091 -20.0091 -19.9952 -19.9952
   -19.9952 -19.9952 -19.9688 -19.9688 -19.9688 -19.9688 -19.9669 -19.9669
   -19.9669 -19.9669 -19.9538 -19.9538 -19.9537 -19.9537 -19.9533 -19.9533
   -19.9533 -19.9533 -19.6323 -19.6323 -19.6323 -19.6323 -19.6323 -19.6323
   -19.6323 -19.6323 -19.6137 -19.6137 -19.6137 -19.6137 -19.6136 -19.6136
   -19.6136 -19.6136 -19.6037 -19.6037 -19.6037 -19.6037 -19.6037 -19.6037
   -19.6037 -19.6037 -19.5627 -19.5627 -19.5627 -19.5627 -19.5626 -19.5626
   -19.5626 -19.5626 -19.5479 -19.5479 -19.5479 -19.5479 -19.5479 -19.5479
   -19.5479 -19.5479 -11.7875 -11.7868 -11.1759 -11.1651 -11.1621 -11.1523
    -9.7249  -9.7132  -9.5839  -9.5594  -9.2969  -9.2736  -9.0703  -9.0577
    -9.0362  -9.0073  -9.0027  -8.9980  -8.8842  -8.8745  -8.8708  -8.8690
    -8.7861  -8.7570  -8.6340  -8.6202  -8.5975  -8.5392  -8.5108  -8.4448
    -8.4302  -8.3411  -8.2947  -8.2630  -8.2623  -8.2423  -7.9731  -7.9509
    -7.9082  -7.8949  -7.8926  -7.8819  -7.8340  -7.8223  -7.7846  -7.7771
    -7.7765  -7.7666  -7.7346  -7.7345  -7.7052  -7.7018  -7.6260  -7.6175
    -7.5872  -7.5696  -7.5655  -7.5531  -7.5514  -7.5457  -7.3612  -7.3579
    -7.3147  -7.3073  -7.2604  -7.2517  -7.2437  -7.2419  -4.1721  -4.1024
    -4.0700  -3.9762  -3.9461  -3.9452  -3.7869  -3.7836  -3.4370  -3.4310
    -2.9781  -2.9466  -2.8001  -2.7982  -2.7823  -2.7700  -2.5465  -2.4658
    -2.0934  -2.0484  -2.0269  -1.9703  -1.3694  -1.3605  -1.3597  -1.3535
    -1.3231  -1.2816  -1.2323  -1.1813  -1.1132  -1.0884  -1.0157  -0.9952
    -0.9902  -0.9548  -0.8833  -0.7797  -0.7194  -0.6849  -0.3131  -0.3019
    -0.2971  -0.2049  -0.1874  -0.1675  -0.1358  -0.1094  -0.0562   0.0400
     0.0693   0.0818   0.2326   0.2455   0.2795   0.2817   0.2925   0.3063
     0.3446   0.4322   0.4400   0.4615   0.4812   0.5338   0.5518   0.5596
     0.5673   0.6236   0.6452   0.7005   0.7440   0.7748   0.8486   0.8582
     0.8622   0.8748   0.9487   0.9487   0.9793   1.0313   1.0554   1.0672
     1.0909   1.1113   1.1863   1.1876   1.1954   1.2020   1.2316   1.2670
     1.2967   1.3001   1.3280   1.3351   1.3812   1.3829   1.4014   1.4256
     1.4378   1.4872   1.5064   1.5144   1.5387   1.5600   1.5797   1.6246
     1.6404   1.6514   1.6579   1.6916   1.7117   1.7179   1.7394   1.7553
     1.7605   1.7974   1.8552   1.8653   1.8961   1.9530   1.9555   1.9595
     2.0224   2.0441   2.0566   2.0609   2.0819   2.1047   2.1492   2.1612
     2.1639   2.1779   2.1968   2.2168   2.2282   2.2480   2.2843   2.2871
     2.3013   2.3125   2.3213   2.3601   2.4152   2.4201   2.4608   2.5233
     2.5508   2.5609   2.5617   2.6489   2.6633   2.6734   2.6848   2.7171
     2.7255   2.7346   2.7362   2.7569   2.7836   2.7901   2.8069   2.8153
     2.8448   2.8707   2.8960   2.8976   2.9113   2.9267   2.9565   2.9591
     2.9762   2.9910   2.9946   3.0121   3.0518   3.0846   3.1345   3.1725
     3.1749   3.2001   3.2033   3.2121   3.2488   3.2585   3.2928   3.3067
     3.3189   3.3312   3.3368   3.3459   3.3469   3.4232   3.4305   3.4918
     3.5075   3.5300   3.5608   3.5999   3.6654   3.7006   3.7549   3.8115
     3.8242   3.8387   6.1953   6.3773   6.4464   6.4734   6.5785   6.5811
     6.6143   6.7273   6.7862   6.9067   6.9073   6.9599   7.0172   7.0323
     7.0792   7.1238   7.1511   7.2201   7.2323   7.2723   7.2807   7.3851
     7.3859   7.4958   7.5398   7.5401   7.5592   7.5807   7.6023   7.6760
     7.7054   7.8339   7.8445   7.9052   7.9274   7.9315   7.9346   7.9897
     8.0267   8.0565   8.0592   8.1484   8.1860   8.2046   8.2869   8.2935
     8.3668   8.3701   8.3749   8.4110   8.4189   8.4304   8.4980   8.5057
     8.5191   8.5430   8.5626   8.6006   8.6384   8.6398   8.6543   8.6776
     8.7249   8.7431   8.7695   8.8103   8.8132   8.8302   8.8719   8.9246
     8.9507   8.9565   8.9834   8.9890   9.0532   9.1022   9.1028   9.1510
     9.1617   9.2248   9.2408   9.2568   9.2653   9.3086   9.3130   9.3552
     9.4030   9.4251   9.4705   9.4726   9.4803   9.5792

     occupation numbers 
     1.0000   1.0000   1.0000   1.0000   1.0000   1.0000   1.0000   1.0000
     1.0000   1.0000   1.0000   1.0000   1.0000   1.0000   1.0000   1.0000
     1.0000   1.0000   1.0000   1.0000   1.0000   1.0000   1.0000   1.0000
     1.0000   1.0000   1.0000   1.0000   1.0000   1.0000   1.0000   1.0000
     1.0000   1.0000   1.0000   1.0000   1.0000   1.0000   1.0000   1.0000
     1.0000   1.0000   1.0000   1.0000   1.0000   1.0000   1.0000   1.0000
     1.0000   1.0000   1.0000   1.0000   1.0000   1.0000   1.0000   1.0000
     1.0000   1.0000   1.0000   1.0000   1.0000   1.0000   1.0000   1.0000
     1.0000   1.0000   1.0000   1.0000   1.0000   1.0000   1.0000   1.0000
     1.0000   1.0000   1.0000   1.0000   1.0000   1.0000   1.0000   1.0000
     1.0000   1.0000   1.0000   1.0000   1.0000   1.0000   1.0000   1.0000
     1.0000   1.0000   1.0000   1.0000   1.0000   1.0000   1.0000   1.0000
     1.0000   1.0000   1.0000   1.0000   1.0000   1.0000   1.0000   1.0000
     1.0000   1.0000   1.0000   1.0000   1.0000   1.0000   1.0000   1.0000
     1.0000   1.0000   1.0000   1.0000   1.0000   1.0000   1.0000   1.0000
     1.0000   1.0000   1.0000   1.0000   1.0000   1.0000   1.0000   1.0000
     1.0000   1.0000   1.0000   1.0000   1.0000   1.0000   1.0000   1.0000
     1.0000   1.0000   1.0000   1.0000   1.0000   1.0000   1.0000   1.0000
     1.0000   1.0000   1.0000   1.0000   1.0000   1.0000   1.0000   1.0000
     1.0000   1.0000   1.0000   1.0000   1.0000   1.0000   1.0000   1.0000
     1.0000   1.0000   1.0000   1.0000   1.0000   1.0000   1.0000   1.0000
     1.0000   1.0000   1.0000   1.0000   1.0000   1.0000   1.0000   1.0000
     1.0000   1.0000   1.0000   1.0000   1.0000   1.0000   1.0000   1.0000
     1.0000   1.0000   1.0000   1.0000   1.0000   1.0000   1.0000   1.0000
     1.0000   1.0000   1.0000   1.0000   1.0000   1.0000   1.0000   1.0000
     1.0000   1.0000   1.0000   1.0000   1.0000   1.0000   1.0000   1.0000
     1.0000   1.0000   1.0000   1.0000   1.0000   1.0000   1.0000   1.0000
     1.0000   1.0000   1.0000   1.0000   1.0000   1.0000   1.0000   1.0000
     1.0000   1.0000   1.0000   1.0000   1.0000   1.0000   1.0000   1.0000
     1.0000   1.0000   1.0000   1.0000   1.0000   1.0000   1.0000   1.0000
     1.0000   1.0000   1.0000   1.0000   1.0000   1.0000   1.0000   1.0000
     1.0000   1.0000   1.0000   1.0000   1.0000   1.0000   1.0000   1.0000
     1.0000   1.0000   1.0000   1.0000   1.0000   1.0000   1.0000   1.0000
     1.0000   1.0000   1.0000   1.0000   1.0000   1.0000   1.0000   1.0000
     1.0000   1.0000   1.0000   1.0000   1.0000   1.0000   1.0000   1.0000
     1.0000   1.0000   1.0000   1.0000   1.0000   1.0000   1.0000   1.0000
     1.0000   1.0000   1.0000   1.0000   1.0000   1.0000   1.0000   1.0000
     1.0000   1.0000   1.0000   1.0000   1.0000   1.0000   1.0000   1.0000
     1.0000   1.0000   1.0000   1.0000   1.0000   1.0000   1.0000   1.0000
     1.0000   1.0000   1.0000   1.0000   1.0000   1.0000   1.0000   1.0000
     1.0000   1.0000   1.0000   1.0000   1.0000   1.0000   1.0000   1.0000
     1.0000   1.0000   1.0000   1.0000   1.0000   1.0000   1.0000   1.0000
     1.0000   1.0000   1.0000   1.0000   1.0000   1.0000   1.0000   1.0000
     1.0000   1.0000   1.0000   1.0000   1.0000   1.0000   1.0000   1.0000
     1.0000   1.0000   1.0000   1.0000   1.0000   1.0000   1.0000   1.0000
     1.0000   1.0000   1.0000   1.0000   1.0000   1.0000   1.0000   1.0000
     1.0000   1.0000   1.0000   1.0000   1.0000   1.0000   1.0000   1.0000
     1.0000   1.0000   1.0000   1.0000   1.0000   1.0000   1.0000   1.0000
     1.0000   1.0000   1.0000   1.0000   1.0000   1.0000   1.0000   1.0000
     1.0000   1.0000   1.0000   1.0000   1.0000   1.0000   1.0000   1.0000
     1.0000   1.0000   1.0000   1.0000   1.0000   1.0000   1.0000   1.0000
     1.0000   1.0000   1.0393   1.0824   1.0525   1.0269   0.8430   0.8370
     0.7544   0.4475   0.3045   0.1068   0.1061   0.0599   0.0297   0.0243
     0.0126   0.0064   0.0041   0.0012   0.0010   0.0005   0.0004   0.0000
     0.0000   0.0000   0.0000   0.0000   0.0000   0.0000   0.0000   0.0000
     0.0000   0.0000   0.0000   0.0000   0.0000   0.0000   0.0000   0.0000
     0.0000   0.0000   0.0000   0.0000   0.0000   0.0000   0.0000   0.0000
     0.0000   0.0000   0.0000   0.0000   0.0000   0.0000   0.0000   0.0000
     0.0000   0.0000   0.0000   0.0000   0.0000   0.0000   0.0000   0.0000
     0.0000   0.0000   0.0000   0.0000   0.0000   0.0000   0.0000   0.0000
     0.0000   0.0000   0.0000   0.0000   0.0000   0.0000   0.0000   0.0000
     0.0000   0.0000   0.0000   0.0000   0.0000   0.0000   0.0000   0.0000
     0.0000   0.0000   0.0000   0.0000   0.0000   0.0000

          k = 0.0000 0.0000-1.4053 ( 76508 PWs)   bands (ev):

   -50.8997 -50.8997 -50.8997 -50.8997 -44.4905 -44.4905 -44.4905 -44.4905
   -44.4898 -44.4898 -44.4898 -44.4898 -41.9019 -41.9019 -41.9018 -41.9018
   -41.8823 -41.8823 -41.8822 -41.8822 -41.7219 -41.7219 -41.7219 -41.7219
   -41.4321 -41.4321 -41.4321 -41.4321 -41.1220 -41.1220 -41.1220 -41.1220
   -41.0917 -41.0917 -41.0917 -41.0917 -41.0916 -41.0916 -41.0915 -41.0915
   -41.0567 -41.0567 -41.0567 -41.0567 -40.9124 -40.9124 -40.9124 -40.9124
   -40.7753 -40.7753 -40.3228 -40.3228 -40.3228 -40.3228 -40.3227 -40.3227
   -40.3227 -40.3227 -20.0443 -20.0443 -20.0442 -20.0442 -20.0431 -20.0431
   -20.0431 -20.0431 -20.0157 -20.0157 -20.0157 -20.0157 -20.0125 -20.0125
   -20.0125 -20.0125 -20.0091 -20.0091 -20.0091 -20.0091 -19.9952 -19.9952
   -19.9952 -19.9952 -19.9688 -19.9688 -19.9688 -19.9688 -19.9669 -19.9669
   -19.9669 -19.9669 -19.9538 -19.9538 -19.9537 -19.9537 -19.9533 -19.9533
   -19.9533 -19.9533 -19.6323 -19.6323 -19.6323 -19.6323 -19.6323 -19.6323
   -19.6323 -19.6323 -19.6137 -19.6137 -19.6137 -19.6137 -19.6136 -19.6136
   -19.6136 -19.6136 -19.6037 -19.6037 -19.6037 -19.6037 -19.6037 -19.6037
   -19.6037 -19.6037 -19.5627 -19.5627 -19.5627 -19.5627 -19.5626 -19.5626
   -19.5626 -19.5626 -19.5479 -19.5479 -19.5479 -19.5479 -19.5479 -19.5479
   -19.5479 -19.5479 -11.7871 -11.7871 -11.1705 -11.1705 -11.1572 -11.1572
    -9.6696  -9.6696  -9.6511  -9.6511  -9.1614  -9.1614  -9.1387  -9.1387
    -9.0364  -9.0364  -9.0273  -9.0273  -8.8786  -8.8786  -8.8707  -8.8707
    -8.7777  -8.7777  -8.6233  -8.6233  -8.5111  -8.5111  -8.4879  -8.4879
    -8.4116  -8.4116  -8.2783  -8.2783  -8.2525  -8.2525  -7.9627  -7.9627
    -7.9004  -7.9004  -7.8450  -7.8450  -7.8334  -7.8334  -7.8121  -7.8121
    -7.7455  -7.7455  -7.7349  -7.7349  -7.7227  -7.7227  -7.6068  -7.6068
    -7.5988  -7.5988  -7.5602  -7.5602  -7.5492  -7.5492  -7.3434  -7.3434
    -7.3361  -7.3361  -7.2541  -7.2541  -7.2416  -7.2416  -4.1374  -4.1374
    -4.0233  -4.0233  -3.9487  -3.9487  -3.6299  -3.6299  -3.6283  -3.6283
    -2.8106  -2.8106  -2.7920  -2.7920  -2.7560  -2.7560  -2.6916  -2.6916
    -2.0311  -2.0311  -1.9743  -1.9743  -1.3654  -1.3654  -1.3648  -1.3648
    -1.3075  -1.3075  -1.2106  -1.2106  -1.0611  -1.0611  -1.0382  -1.0382
    -0.9707  -0.9707  -0.8328  -0.8328  -0.6967  -0.6967  -0.2601  -0.2601
    -0.1676  -0.1676  -0.1514  -0.1514  -0.1418  -0.1418  -0.1030  -0.1030
    -0.0764  -0.0764   0.2420   0.2420   0.2694   0.2694   0.3182   0.3182
     0.4111   0.4111   0.4776   0.4776   0.5134   0.5134   0.5786   0.5786
     0.6032   0.6032   0.6656   0.6656   0.6671   0.6671   0.8194   0.8194
     0.8730   0.8730   0.9517   0.9517   1.0057   1.0057   1.0577   1.0577
     1.0833   1.0833   1.2227   1.2227   1.2300   1.2300   1.2731   1.2731
     1.3366   1.3366   1.3783   1.3783   1.4001   1.4001   1.4253   1.4253
     1.4368   1.4368   1.5289   1.5289   1.5897   1.5897   1.5980   1.5980
     1.6297   1.6297   1.6555   1.6555   1.7223   1.7223   1.7680   1.7680
     1.8119   1.8119   1.8173   1.8173   1.9333   1.9333   1.9768   1.9768
     1.9870   1.9870   2.0902   2.0902   2.1253   2.1253   2.1452   2.1452
     2.1845   2.1845   2.2029   2.2029   2.2147   2.2147   2.2718   2.2718
     2.3199   2.3199   2.3659   2.3659   2.4291   2.4291   2.4546   2.4546
     2.4982   2.4982   2.6264   2.6264   2.6871   2.6871   2.7202   2.7202
     2.7422   2.7422   2.7434   2.7434   2.7774   2.7774   2.8146   2.8146
     2.8688   2.8688   2.8937   2.8937   2.9273   2.9273   2.9613   2.9613
     2.9797   2.9797   2.9877   2.9877   3.0073   3.0073   3.1002   3.1002
     3.1545   3.1545   3.2168   3.2168   3.2454   3.2454   3.3164   3.3164
     3.3166   3.3166   3.3613   3.3613   3.4067   3.4067   3.4255   3.4255
     3.5455   3.5455   3.5857   3.5857   3.7097   3.7097   3.7707   3.7707
     3.8082   3.8082   6.2271   6.2271   6.4678   6.4678   6.5496   6.5496
     6.6096   6.6096   6.9055   6.9055   6.9700   6.9700   7.0257   7.0257
     7.0917   7.0917   7.1900   7.1900   7.3179   7.3179   7.3351   7.3351
     7.4853   7.4853   7.5449   7.5449   7.5983   7.5983   7.5984   7.5984
     7.7052   7.7052   7.9037   7.9037   7.9759   7.9759   8.0153   8.0153
     8.0365   8.0365   8.1717   8.1717   8.2221   8.2221   8.2467   8.2467
     8.2983   8.2983   8.3749   8.3749   8.4431   8.4431   8.5238   8.5238
     8.5844   8.5844   8.6414   8.6414   8.6566   8.6566   8.6692   8.6692
     8.7313   8.7313   8.7744   8.7744   8.8281   8.8281   8.8946   8.8946
     8.9536   8.9536   8.9789   8.9789   9.0531   9.0531   9.0776   9.0776
     9.1727   9.1727   9.2405   9.2407   9.2448   9.2449   9.3348   9.3348
     9.3354   9.3355   9.3908   9.3908   9.4859   9.4862

     occupation numbers 
     1.0000   1.0000   1.0000   1.0000   1.0000   1.0000   1.0000   1.0000
     1.0000   1.0000   1.0000   1.0000   1.0000   1.0000   1.0000   1.0000
     1.0000   1.0000   1.0000   1.0000   1.0000   1.0000   1.0000   1.0000
     1.0000   1.0000   1.0000   1.0000   1.0000   1.0000   1.0000   1.0000
     1.0000   1.0000   1.0000   1.0000   1.0000   1.0000   1.0000   1.0000
     1.0000   1.0000   1.0000   1.0000   1.0000   1.0000   1.0000   1.0000
     1.0000   1.0000   1.0000   1.0000   1.0000   1.0000   1.0000   1.0000
     1.0000   1.0000   1.0000   1.0000   1.0000   1.0000   1.0000   1.0000
     1.0000   1.0000   1.0000   1.0000   1.0000   1.0000   1.0000   1.0000
     1.0000   1.0000   1.0000   1.0000   1.0000   1.0000   1.0000   1.0000
     1.0000   1.0000   1.0000   1.0000   1.0000   1.0000   1.0000   1.0000
     1.0000   1.0000   1.0000   1.0000   1.0000   1.0000   1.0000   1.0000
     1.0000   1.0000   1.0000   1.0000   1.0000   1.0000   1.0000   1.0000
     1.0000   1.0000   1.0000   1.0000   1.0000   1.0000   1.0000   1.0000
     1.0000   1.0000   1.0000   1.0000   1.0000   1.0000   1.0000   1.0000
     1.0000   1.0000   1.0000   1.0000   1.0000   1.0000   1.0000   1.0000
     1.0000   1.0000   1.0000   1.0000   1.0000   1.0000   1.0000   1.0000
     1.0000   1.0000   1.0000   1.0000   1.0000   1.0000   1.0000   1.0000
     1.0000   1.0000   1.0000   1.0000   1.0000   1.0000   1.0000   1.0000
     1.0000   1.0000   1.0000   1.0000   1.0000   1.0000   1.0000   1.0000
     1.0000   1.0000   1.0000   1.0000   1.0000   1.0000   1.0000   1.0000
     1.0000   1.0000   1.0000   1.0000   1.0000   1.0000   1.0000   1.0000
     1.0000   1.0000   1.0000   1.0000   1.0000   1.0000   1.0000   1.0000
     1.0000   1.0000   1.0000   1.0000   1.0000   1.0000   1.0000   1.0000
     1.0000   1.0000   1.0000   1.0000   1.0000   1.0000   1.0000   1.0000
     1.0000   1.0000   1.0000   1.0000   1.0000   1.0000   1.0000   1.0000
     1.0000   1.0000   1.0000   1.0000   1.0000   1.0000   1.0000   1.0000
     1.0000   1.0000   1.0000   1.0000   1.0000   1.0000   1.0000   1.0000
     1.0000   1.0000   1.0000   1.0000   1.0000   1.0000   1.0000   1.0000
     1.0000   1.0000   1.0000   1.0000   1.0000   1.0000   1.0000   1.0000
     1.0000   1.0000   1.0000   1.0000   1.0000   1.0000   1.0000   1.0000
     1.0000   1.0000   1.0000   1.0000   1.0000   1.0000   1.0000   1.0000
     1.0000   1.0000   1.0000   1.0000   1.0000   1.0000   1.0000   1.0000
     1.0000   1.0000   1.0000   1.0000   1.0000   1.0000   1.0000   1.0000
     1.0000   1.0000   1.0000   1.0000   1.0000   1.0000   1.0000   1.0000
     1.0000   1.0000   1.0000   1.0000   1.0000   1.0000   1.0000   1.0000
     1.0000   1.0000   1.0000   1.0000   1.0000   1.0000   1.0000   1.0000
     1.0000   1.0000   1.0000   1.0000   1.0000   1.0000   1.0000   1.0000
     1.0000   1.0000   1.0000   1.0000   1.0000   1.0000   1.0000   1.0000
     1.0000   1.0000   1.0000   1.0000   1.0000   1.0000   1.0000   1.0000
     1.0000   1.0000   1.0000   1.0000   1.0000   1.0000   1.0000   1.0000
     1.0000   1.0000   1.0000   1.0000   1.0000   1.0000   1.0000   1.0000
     1.0000   1.0000   1.0000   1.0000   1.0000   1.0000   1.0000   1.0000
     1.0000   1.0000   1.0000   1.0000   1.0000   1.0000   1.0000   1.0000
     1.0000   1.0000   1.0000   1.0000   1.0000   1.0000   1.0000   1.0000
     1.0000   1.0000   1.0000   1.0000   1.0000   1.0000   1.0000   1.0000
     1.0000   1.0000   1.0000   1.0000   1.0000   1.0000   1.0000   1.0000
     1.0000   1.0000   1.0000   1.0000   1.0000   1.0000   1.0000   1.0000
     1.0000   1.0000   1.0000   1.0000   1.0000   1.0000   1.0000   1.0000
     1.0000   1.0000   1.0000   1.0000   1.0000   1.0000   1.0000   1.0000
     1.0000   1.0000   1.0000   1.0000   1.0000   1.0000   1.0000   1.0000
     1.0000   1.0000   1.0498   1.0498   1.0328   1.0328   0.9062   0.9062
     0.7666   0.7666   0.1081   0.1081   0.0533   0.0533   0.0266   0.0266
     0.0105   0.0105   0.0021   0.0021   0.0002   0.0002   0.0001   0.0001
     0.0000   0.0000   0.0000   0.0000   0.0000   0.0000   0.0000   0.0000
     0.0000   0.0000   0.0000   0.0000   0.0000   0.0000   0.0000   0.0000
     0.0000   0.0000   0.0000   0.0000   0.0000   0.0000   0.0000   0.0000
     0.0000   0.0000   0.0000   0.0000   0.0000   0.0000   0.0000   0.0000
     0.0000   0.0000   0.0000   0.0000   0.0000   0.0000   0.0000   0.0000
     0.0000   0.0000   0.0000   0.0000   0.0000   0.0000   0.0000   0.0000
     0.0000   0.0000   0.0000   0.0000   0.0000   0.0000   0.0000   0.0000
     0.0000   0.0000   0.0000   0.0000   0.0000   0.0000   0.0000   0.0000
     0.0000   0.0000   0.0000   0.0000   0.0000   0.0000

          k =-0.2500 0.7446 0.0000 ( 76461 PWs)   bands (ev):

   -50.8997 -50.8997 -50.8997 -50.8997 -44.4905 -44.4905 -44.4905 -44.4905
   -44.4898 -44.4898 -44.4898 -44.4898 -41.9019 -41.9019 -41.9018 -41.9018
   -41.8823 -41.8823 -41.8823 -41.8823 -41.7219 -41.7219 -41.7219 -41.7219
   -41.4321 -41.4321 -41.4321 -41.4321 -41.1220 -41.1220 -41.1220 -41.1220
   -41.0917 -41.0917 -41.0917 -41.0917 -41.0916 -41.0916 -41.0915 -41.0915
   -41.0567 -41.0567 -41.0567 -41.0567 -40.9124 -40.9124 -40.9124 -40.9124
   -40.7753 -40.7753 -40.3228 -40.3228 -40.3228 -40.3228 -40.3227 -40.3227
   -40.3227 -40.3227 -20.0443 -20.0443 -20.0442 -20.0442 -20.0431 -20.0431
   -20.0431 -20.0431 -20.0157 -20.0157 -20.0157 -20.0157 -20.0126 -20.0126
[...]
     atom  105 type  2   force =    -0.00007348   -0.00002018   -0.00000330
     atom  106 type  2   force =     0.00007348    0.00002018   -0.00000330
     atom  107 type  2   force =    -0.00007348    0.00002018   -0.00000330
     atom  108 type  2   force =     0.00007348   -0.00002018   -0.00000330
     atom  109 type  2   force =     0.00007348    0.00002018    0.00000330
     atom  110 type  2   force =    -0.00007348   -0.00002018    0.00000330
     atom  111 type  2   force =     0.00004645   -0.00000910   -0.00001052
     atom  112 type  2   force =    -0.00004645    0.00000910   -0.00001052
     atom  113 type  2   force =    -0.00004645   -0.00000910    0.00001052
     atom  114 type  2   force =     0.00004645    0.00000910    0.00001052
     atom  115 type  2   force =    -0.00004645    0.00000910    0.00001052
     atom  116 type  2   force =     0.00004645   -0.00000910    0.00001052
     atom  117 type  2   force =     0.00004645    0.00000910   -0.00001052
     atom  118 type  2   force =    -0.00004645   -0.00000910   -0.00001052
     atom  119 type  2   force =    -0.00000000   -0.00000000    0.00000000
     atom  120 type  2   force =    -0.00000000   -0.00000000   -0.00000000
     atom  121 type  2   force =    -0.00000168   -0.00001044   -0.00000904
     atom  122 type  2   force =     0.00000168    0.00001044   -0.00000904
     atom  123 type  2   force =     0.00000168   -0.00001044    0.00000904
     atom  124 type  2   force =    -0.00000168    0.00001044    0.00000904
     atom  125 type  2   force =     0.00000168    0.00001044    0.00000904
     atom  126 type  2   force =    -0.00000168   -0.00001044    0.00000904
     atom  127 type  2   force =    -0.00000168    0.00001044   -0.00000904
     atom  128 type  2   force =     0.00000168   -0.00001044   -0.00000904
     atom  129 type  2   force =     0.00001031   -0.00000000   -0.00000000
     atom  130 type  2   force =    -0.00001031    0.00000000   -0.00000000
     atom  131 type  2   force =    -0.00001031    0.00000000    0.00000000
     atom  132 type  2   force =     0.00001031   -0.00000000   -0.00000000
     atom  133 type  2   force =    -0.00000000   -0.00000000   -0.00000187
     atom  134 type  2   force =     0.00000000   -0.00000000    0.00000187
     atom  135 type  2   force =     0.00000000   -0.00000000    0.00000187
     atom  136 type  2   force =    -0.00000000   -0.00000000   -0.00000187
     atom  137 type  2   force =     0.00000000    0.00000000    0.00001461
     atom  138 type  2   force =     0.00000000    0.00000000   -0.00001461
     atom  139 type  2   force =    -0.00000000   -0.00000000   -0.00001461
     atom  140 type  2   force =     0.00000000   -0.00000000    0.00001461
     atom  141 type  2   force =    -0.00005699   -0.00003589    0.00000455
     atom  142 type  2   force =     0.00005699    0.00003589    0.00000455
     atom  143 type  2   force =     0.00005699   -0.00003589   -0.00000455
     atom  144 type  2   force =    -0.00005699    0.00003589   -0.00000455
     atom  145 type  2   force =     0.00005699    0.00003589   -0.00000455
     atom  146 type  2   force =    -0.00005699   -0.00003589   -0.00000455
     atom  147 type  2   force =    -0.00005699    0.00003589    0.00000455
     atom  148 type  2   force =     0.00005699   -0.00003589    0.00000455

     Total force =     0.712831     Total SCF correction =     0.001047


     Computing stress (Cartesian axis) and pressure

          total   stress  (Ry/bohr**3)                   (kbar)     P=       37.55
   0.00021246   0.00000000   0.00000000           31.25        0.00        0.00
   0.00000000   0.00033842   0.00000000            0.00       49.78        0.00
   0.00000000   0.00000000   0.00021481            0.00        0.00       31.60

     kinetic stress (kbar)   5083.19      0.00      0.00
                               -0.00   5107.22      0.00
                                0.00      0.00   5114.85

     local   stress (kbar)   -918.72      0.00     -0.00
                                0.00  -5516.99      0.00
                               -0.00      0.00  -4435.14

     nonloc. stress (kbar)   2304.60      0.00      0.00
                                0.00   2289.87      0.00
                                0.00      0.00   2296.30

     hartree stress (kbar)   4355.42     -0.00     -0.00
                               -0.00   6684.79     -0.00
                               -0.00     -0.00   6212.10

     exc-cor stress (kbar)   3143.73     -0.00      0.00
                               -0.00   3142.04     -0.00
                                0.00     -0.00   3142.29

     corecor stress (kbar)  -5859.76     -0.00     -0.00
                               -0.00  -5859.58      0.00
                               -0.00      0.00  -5859.61

     ewald   stress (kbar)  -8077.19      0.00     -0.00
                                0.00  -5797.56     -0.00
                               -0.00     -0.00  -6439.19

     hubbard stress (kbar)      0.00      0.00      0.00
                                0.00      0.00      0.00
                                0.00      0.00      0.00

     DFT-D   stress (kbar)      0.00      0.00      0.00
                                0.00      0.00      0.00
                                0.00      0.00      0.00

     XDM     stress (kbar)      0.00      0.00      0.00
                                0.00      0.00      0.00
                                0.00      0.00      0.00

     dft-nl  stress (kbar)      0.00      0.00      0.00
                                0.00      0.00      0.00
                                0.00      0.00      0.00

     TS-vdW  stress (kbar)      0.00      0.00      0.00
                                0.00      0.00      0.00
                                0.00      0.00      0.00

     MDB     stress (kbar)      0.00      0.00      0.00
                                0.00      0.00      0.00
                                0.00      0.00      0.00

     3D-RISM stress (kbar)      0.00      0.00      0.00
                                0.00      0.00      0.00
                                0.00      0.00      0.00

     Energy error            =      1.4E+00 Ry
     Gradient error          =      1.2E-01 Ry/Bohr
     Cell gradient error     =      5.0E+01 kbar

     number of scf cycles    =   3
     number of bfgs steps    =   2

     enthalpy           old  =   -5985.6678056216 Ry
     enthalpy           new  =   -5987.0604334269 Ry

     CASE: enthalpy          _new < enthalpy          _old

     new trust radius        =       0.4954672077 bohr
     new conv_thr            =       0.0000006400 Ry

     new unit-cell volume =  20005.81286 a.u.^3 (  2964.55561 Ang^3 )
     density =      2.20192 g/cm^3

CELL_PARAMETERS (alat= 66.92370773)
   0.519212178   0.175136900   0.000000000
  -0.519212178   0.175136900   0.000000000
   0.000000000   0.000000000   0.366997999

ATOMIC_POSITIONS (crystal)
Ge               0.1822138040        0.3606320509        0.6090908470
Ge               0.3177861960        0.1393679491        0.6090908470
Ge               0.3606320509        0.1822138040        0.8909091530
Ge               0.1393679491        0.3177861960        0.8909091530
Ge               0.8177861960        0.6393679491        0.3909091530
Ge               0.6822138040        0.8606320509        0.3909091530
Ge               0.6393679491        0.8177861960        0.1090908470
Ge               0.8606320509        0.6822138040        0.1090908470
Ge               0.9083070302        0.1626243372        0.4711304235
Ge               0.5916929698        0.3373756628        0.4711304235
Ge               0.1626243372        0.9083070302        0.0288695765
Ge               0.3373756628        0.5916929698        0.0288695765
Ge               0.0916929698        0.8373756628        0.5288695765
Ge               0.4083070302        0.6626243372        0.5288695765
Ge               0.8373756628        0.0916929698        0.9711304235
Ge               0.6626243372        0.4083070302        0.9711304235
S                0.3317779167        0.4041411257        0.6170418301
S                0.1682220833        0.0958588743        0.6170418301
S                0.4041411257        0.3317779167        0.8829581699
S                0.0958588743        0.1682220833        0.8829581699
S                0.6682220833        0.5958588743        0.3829581699
S                0.8317779167        0.9041411257        0.3829581699
S                0.5958588743        0.6682220833        0.1170418301
S                0.9041411257        0.8317779167        0.1170418301
S                0.0315105002        0.1751847796        0.5538705007
S                0.4684894998        0.3248152204        0.5538705007
S                0.1751847796        0.0315105002        0.9461294993
S                0.3248152204        0.4684894998        0.9461294993
S                0.9684894998        0.8248152204        0.4461294993
S                0.5315105002        0.6751847796        0.4461294993
S                0.8248152204        0.9684894998        0.0538705007
S                0.6751847796        0.5315105002        0.0538705007
S                0.7234749563        0.9735857784        0.5164801741
S                0.7765250437        0.5264142216        0.5164801741
S                0.9735857784        0.7234749563        0.9835198259
S                0.5264142216        0.7765250437        0.9835198259
S                0.2765250437        0.0264142216        0.4835198259
S                0.2234749563        0.4735857784        0.4835198259
S                0.0264142216        0.2765250437        0.0164801741
S                0.4735857784        0.2234749563        0.0164801741
S                0.9625998064        0.2006189335        0.2945956563
S                0.5374001936        0.2993810665        0.2945956563
S                0.2006189335        0.9625998064        0.2054043437
S                0.2993810665        0.5374001936        0.2054043437
S                0.0374001936        0.7993810665        0.7054043437
S                0.4625998064        0.7006189335        0.7054043437
S                0.7993810665        0.0374001936        0.7945956563
S                0.7006189335        0.4625998064        0.7945956563
S                0.9042112382        0.2697649926        0.5371302806
S                0.5957887618        0.2302350074        0.5371302806
S                0.2697649926        0.9042112382        0.9628697194
S                0.2302350074        0.5957887618        0.9628697194
S                0.0957887618        0.7302350074        0.4628697194
S                0.4042112382        0.7697649926        0.4628697194
S                0.7302350074        0.0957887618        0.0371302806
S                0.7697649926        0.4042112382        0.0371302806
S                0.3769354265        0.1230645735        0.7500000000
S                0.1230645735        0.3769354265        0.7500000000
S                0.6230645735        0.8769354265        0.2500000000
S                0.8769354265        0.6230645735        0.2500000000
S                0.6386335225        0.0683822891        0.6487017675
S                0.8613664775        0.4316177109        0.6487017675
S                0.0683822891        0.6386335225        0.8512982325
S                0.4316177109        0.8613664775        0.8512982325
S                0.3613664775        0.9316177109        0.3512982325
S                0.1386335225        0.5683822891        0.3512982325
S                0.9316177109        0.3613664775        0.1487017675
S                0.5683822891        0.1386335225        0.1487017675
S                0.3451559427        0.9136799098        0.6618204841
S                0.1548440573        0.5863200902        0.6618204841
S                0.9136799098        0.3451559427        0.8381795159
S                0.5863200902        0.1548440573        0.8381795159
S                0.6548440573        0.0863200902        0.3381795159
S                0.8451559427        0.4136799098        0.3381795159
S                0.0863200902        0.6548440573        0.1618204841
S                0.4136799098        0.8451559427        0.1618204841
S                0.1257927541        0.1904255081        0.1508104605
S                0.3742072459        0.3095744919        0.1508104605
S                0.1904255081        0.1257927541        0.3491895395
S                0.3095744919        0.3742072459        0.3491895395
S                0.8742072459        0.8095744919        0.8491895395
S                0.6257927541        0.6904255081        0.8491895395
S                0.8095744919        0.8742072459        0.6508104605
S                0.6904255081        0.6257927541        0.6508104605
P                0.0031427219        0.4968572781        0.7500000000
P                0.4968572781        0.0031427219        0.7500000000
P                0.9968572781        0.5031427219        0.2500000000
P                0.5031427219        0.9968572781        0.2500000000
P                0.2500000000        0.2500000000        0.2500000000
P                0.7500000000        0.7500000000        0.7500000000
Li               0.4421280861        0.5681708321        0.2724988309
Li               0.0578719139        0.9318291679        0.2724988309
Li               0.5681708321        0.4421280861        0.2275011691
Li               0.9318291679        0.0578719139        0.2275011691
Li               0.5578719139        0.4318291679        0.7275011691
Li               0.9421280861        0.0681708321        0.7275011691
Li               0.4318291679        0.5578719139        0.7724988309
Li               0.0681708321        0.9421280861        0.7724988309
Li               0.9132506819        0.5867493181        0.7500000000
Li               0.5867493181        0.9132506819        0.7500000000
Li               0.0867493181        0.4132506819        0.2500000000
Li               0.4132506819        0.0867493181        0.2500000000
Li               0.7637035774        0.4138838289        0.7567900242
Li               0.7362964226        0.0861161711        0.7567900242
Li               0.4138838289        0.7637035774        0.7432099758
Li               0.0861161711        0.7362964226        0.7432099758
Li               0.2362964226        0.5861161711        0.2432099758
Li               0.2637035774        0.9138838289        0.2432099758
Li               0.5861161711        0.2362964226        0.2567900242
Li               0.9138838289        0.2637035774        0.2567900242
Li               0.9146278878        0.5329999104        0.4886356133
Li               0.5853721122        0.9670000896        0.4886356133
Li               0.5329999104        0.9146278878        0.0113643867
Li               0.9670000896        0.5853721122        0.0113643867
Li               0.0853721122        0.4670000896        0.5113643867
Li               0.4146278878        0.0329999104        0.5113643867
Li               0.4670000896        0.0853721122        0.9886356133
Li               0.0329999104        0.4146278878        0.9886356133
Li               0.2500000000        0.2500000000        0.7500000000
Li               0.7500000000        0.7500000000        0.2500000000
Li               0.7029197183        0.6774287856        0.0002305902
Li               0.7970802817        0.8225712144        0.0002305902
Li               0.6774287856        0.7029197183        0.4997694098
Li               0.8225712144        0.7970802817        0.4997694098
Li               0.2970802817        0.3225712144        0.9997694098
Li               0.2029197183        0.1774287856        0.9997694098
Li               0.3225712144        0.2970802817        0.5002305902
Li               0.1774287856        0.2029197183        0.5002305902
Li               0.1677209206        0.3322790794        0.2500000000
Li               0.3322790794        0.1677209206        0.2500000000
Li               0.8322790794        0.6677209206        0.7500000000
Li               0.6677209206        0.8322790794        0.7500000000
Li               0.2500000000        0.7500000000        0.5204291600
Li               0.7500000000        0.2500000000        0.9795708400
Li               0.7500000000        0.2500000000        0.4795708400
Li               0.2500000000        0.7500000000        0.0204291600
Li               0.2500000000        0.7500000000        0.7908780255
Li               0.7500000000        0.2500000000        0.7091219745
Li               0.7500000000        0.2500000000        0.2091219745
Li               0.2500000000        0.7500000000        0.2908780255
Li               0.2768259335        0.6366688113        0.8038688240
Li               0.2231740665        0.8633311887        0.8038688240
Li               0.6366688113        0.2768259335        0.6961311760
Li               0.8633311887        0.2231740665        0.6961311760
Li               0.7231740665        0.3633311887        0.1961311760
Li               0.7768259335        0.1366688113        0.1961311760
Li               0.3633311887        0.7231740665        0.3038688240
Li               0.1366688113        0.7768259335        0.3038688240



     Writing config-only to output data dir ./out/LGPS.save/ :
     XML data file
     NEW-OLD atomic charge density approx. for the potential
     New effective cutoffs (rho, wfc):  300.59   37.58

     total cpu time spent up to now is   642051.4 secs

     Self-consistent Calculation

     iteration #  1     ecut=    40.00 Ry     beta= 0.70
     Davidson diagonalization with overlap

---- Real-time Memory Report at c_bands before calling an iterative solver
          3098 MiB given to the printing process from OS
             0 MiB allocation reported by mallinfo(arena+hblkhd)
        110315 MiB available memory on the node where the printing process lives
------------------
     c_bands:  1 eigenvalues not converged
     c_bands:  1 eigenvalues not converged
     c_bands:  3 eigenvalues not converged
     c_bands:  2 eigenvalues not converged
     c_bands:  1 eigenvalues not converged
     c_bands:  2 eigenvalues not converged
     c_bands:  2 eigenvalues not converged
     c_bands:  2 eigenvalues not converged
     c_bands:  1 eigenvalues not converged
     c_bands:  3 eigenvalues not converged
     ethr =  1.00E-06,  avg # of iterations = 36.3

     total cpu time spent up to now is   706889.7 secs

     total energy              =   -5987.79690225 Ry
     estimated scf accuracy    <       0.22031139 Ry

     iteration #  2     ecut=    40.00 Ry     beta= 0.70
     Davidson diagonalization with overlap

---- Real-time Memory Report at c_bands before calling an iterative solver
          3098 MiB given to the printing process from OS
             0 MiB allocation reported by mallinfo(arena+hblkhd)
        129594 MiB available memory on the node where the printing process lives
------------------
     c_bands:  2 eigenvalues not converged
     c_bands:  2 eigenvalues not converged
     c_bands:  1 eigenvalues not converged
     c_bands:  2 eigenvalues not converged
     c_bands:  2 eigenvalues not converged
     c_bands:  2 eigenvalues not converged
     ethr =  2.64E-05,  avg # of iterations = 19.5

     total cpu time spent up to now is   720483.9 secs

     total energy              =   -5987.46625018 Ry
     estimated scf accuracy    <       7.21726753 Ry

     iteration #  3     ecut=    40.00 Ry     beta= 0.70
     Davidson diagonalization with overlap

---- Real-time Memory Report at c_bands before calling an iterative solver
          3098 MiB given to the printing process from OS
             0 MiB allocation reported by mallinfo(arena+hblkhd)
        127547 MiB available memory on the node where the printing process lives
------------------
