
     Program PWSCF v.7.4 starts on 28Mar2025 at  8: 6: 7 

     This program is part of the open-source Quantum ESPRESSO suite
     for quantum simulation of materials; please cite
         "P. Giannozzi et al., J. Phys.:Condens. Matter 21 395502 (2009);
         "P. Giannozzi et al., J. Phys.:Condens. Matter 29 465901 (2017);
         "P. Giannozzi et al., J. Chem. Phys. 152 154105 (2020);
          URL http://www.quantum-espresso.org", 
     in publications or presentations arising from this work. More details at
     http://www.quantum-espresso.org/quote

     Parallel version (MPI), running on     8 processors

     MPI processes distributed on     1 nodes
     24770 MiB available memory on the printing compute node when the environment starts
 
     Waiting for input...
     Reading input from standard input

     Current dimensions of program PWSCF are:
     Max number of different atomic species (ntypx) = 10
     Max number of k-points (npk) =  40000
     Max angular momentum in pseudopotentials (lmaxx) =  4
     file Pb.pbe-dn-kjpaw_psl.0.2.2.UPF: wavefunction(s)  6S renormalized
 
     R & G space division:  proc/nbgrp/npool/nimage =       8
     Subspace diagonalization in iterative solution of the eigenvalue problem:
     a serial algorithm will be used

 
     Parallelization info
     --------------------
     sticks:   dense  smooth     PW     G-vecs:    dense   smooth      PW
     Min        1804     900    241               163134    57666    8009
     Max        1805     902    242               163137    57669    8012
     Sum       14433    7209   1933              1305079   461335   64085
 
     Using Slab Decomposition
 


     bravais-lattice index     =            1
     lattice parameter (alat)  =      23.8105  a.u.
     unit-cell volume          =   13499.2064 (a.u.)^3
     number of atoms/cell      =           40
     number of atomic types    =            4
     number of electrons       =       357.00
     number of Kohn-Sham states=          215
     kinetic-energy cutoff     =      40.0000  Ry
     charge density cutoff     =     320.0000  Ry
     scf convergence threshold =      1.4E-09
     mixing beta               =       0.7000
     number of iterations used =            8  plain     mixing
     energy convergence thresh.=      7.0E-05
     force convergence thresh. =      1.0E-04
     press convergence thresh. =      5.0E-02
     Exchange-correlation= SLA  PW   PBE  PBE
                           (   1   4   3   4   0   0   0)
     nstep                     =           50


     GPU acceleration is ACTIVE.  1 visible GPUs per MPI rank
     GPU-aware MPI enabled

     Message from routine print_cuda_info:
     High GPU oversubscription detected. Are you sure this is what you want?

     GPU used by master process:

        Device Number: 0
        Device name: NVIDIA RTX A2000 12GB
        Compute capability : 86
        Ratio of single to double precision performance  : 32
        Memory Clock Rate (KHz): 6001000
        Memory Bus Width (bits): 192
        Peak Memory Bandwidth (GB/s): 288.05

     celldm(1)=  23.810549  celldm(2)=   0.000000  celldm(3)=   0.000000
     celldm(4)=   0.000000  celldm(5)=   0.000000  celldm(6)=   0.000000

     crystal axes: (cart. coord. in units of alat)
               a(1) = (   1.000000   0.000000   0.000000 )  
               a(2) = (   0.000000   1.000000   0.000000 )  
               a(3) = (   0.000000   0.000000   1.000000 )  

     reciprocal axes: (cart. coord. in units 2 pi/alat)
               b(1) = (  1.000000  0.000000  0.000000 )  
               b(2) = (  0.000000  1.000000  0.000000 )  
               b(3) = (  0.000000  0.000000  1.000000 )  


     PseudoPot. # 1 for Cs read from file:
     ../pseudo/Cs_pbe_v1.uspp.F.UPF
     MD5 check sum: 3476d69cb178dfad3ffaa59df4e07ca4
     Pseudo is Ultrasoft + core correction, Zval =  9.0
     Generated by new atomic code, or converted to UPF format
     Using radial grid of  905 points,  6 beta functions with: 
                l(1) =   0
                l(2) =   0
                l(3) =   1
                l(4) =   1
                l(5) =   2
                l(6) =   2
     Q(r) pseudized with  6 coefficients,  rinner =    1.500   1.500   1.500
                                                       1.500   1.500

     PseudoPot. # 2 for I  read from file:
     ../pseudo/I.pbe-n-kjpaw_psl.0.2.UPF
     MD5 check sum: d4ef18d9c8f18dc85e5843bca1e50dc0
     Pseudo is Projector augmented-wave + core cor, Zval =  7.0
     Generated using "atomic" code by A. Dal Corso  v.5.0.99 svn rev. 10869
     Shape of augmentation charge: PSQ
     Using radial grid of 1247 points,  4 beta functions with: 
                l(1) =   0
                l(2) =   0
                l(3) =   1
                l(4) =   1
     Q(r) pseudized with 0 coefficients 


     PseudoPot. # 3 for Pb read from file:
     ../pseudo/Pb.pbe-dn-kjpaw_psl.0.2.2.UPF
     MD5 check sum: 9d431e6316058b74ade52399a6cf67da
     Pseudo is Projector augmented-wave + core cor, Zval = 14.0
     Generated using "atomic" code by A. Dal Corso  v.5.0.99 svn rev. 10869
     Shape of augmentation charge: PSQ
     Using radial grid of 1281 points,  6 beta functions with: 
                l(1) =   0
                l(2) =   0
                l(3) =   1
                l(4) =   1
                l(5) =   2
                l(6) =   2
     Q(r) pseudized with 0 coefficients 


     PseudoPot. # 4 for Zn read from file:
     ../pseudo/Zn_pbe_v1.uspp.F.UPF
     MD5 check sum: df62231357ef9e81f77b2b3087fa5675
     Pseudo is Ultrasoft, Zval = 20.0
     Generated by new atomic code, or converted to UPF format
     Using radial grid of  943 points,  6 beta functions with: 
                l(1) =   0
                l(2) =   0
                l(3) =   1
                l(4) =   1
                l(5) =   2
                l(6) =   2
     Q(r) pseudized with  8 coefficients,  rinner =    1.100   1.100   1.100
                                                       1.100   1.100

     atomic species   valence    mass     pseudopotential
     Cs                9.00   132.90545     Cs( 1.00)
     I                 7.00   126.90447     I ( 1.00)
     Pb               14.00   207.20000     Pb( 1.00)
     Zn               20.00    65.38000     Zn( 1.00)

     48 Sym. Ops., with inversion, found


                                    s                        frac. trans.

      isym =  1     identity                                     

 cryst.   s( 1) = (     1          0          0      )
                  (     0          1          0      )
                  (     0          0          1      )

 cart.    s( 1) = (  1.0000000  0.0000000  0.0000000 )
                  (  0.0000000  1.0000000  0.0000000 )
                  (  0.0000000  0.0000000  1.0000000 )


      isym =  2     180 deg rotation - cart. axis [0,0,1]        

 cryst.   s( 2) = (    -1          0          0      )
                  (     0         -1          0      )
                  (     0          0          1      )

 cart.    s( 2) = ( -1.0000000  0.0000000  0.0000000 )
                  (  0.0000000 -1.0000000  0.0000000 )
                  (  0.0000000  0.0000000  1.0000000 )


      isym =  3     180 deg rotation - cart. axis [0,1,0]        

 cryst.   s( 3) = (    -1          0          0      )
                  (     0          1          0      )
                  (     0          0         -1      )

 cart.    s( 3) = ( -1.0000000  0.0000000  0.0000000 )
                  (  0.0000000  1.0000000  0.0000000 )
                  (  0.0000000  0.0000000 -1.0000000 )


      isym =  4     180 deg rotation - cart. axis [1,0,0]        

 cryst.   s( 4) = (     1          0          0      )
                  (     0         -1          0      )
                  (     0          0         -1      )

 cart.    s( 4) = (  1.0000000  0.0000000  0.0000000 )
                  (  0.0000000 -1.0000000  0.0000000 )
                  (  0.0000000  0.0000000 -1.0000000 )


      isym =  5     180 deg rotation - cart. axis [1,1,0]        

 cryst.   s( 5) = (     0          1          0      )
                  (     1          0          0      )
                  (     0          0         -1      )

 cart.    s( 5) = (  0.0000000  1.0000000  0.0000000 )
                  (  1.0000000  0.0000000  0.0000000 )
                  (  0.0000000  0.0000000 -1.0000000 )


      isym =  6     180 deg rotation - cart. axis [1,-1,0]       

 cryst.   s( 6) = (     0         -1          0      )
                  (    -1          0          0      )
                  (     0          0         -1      )

 cart.    s( 6) = (  0.0000000 -1.0000000  0.0000000 )
                  ( -1.0000000  0.0000000  0.0000000 )
                  (  0.0000000  0.0000000 -1.0000000 )


      isym =  7      90 deg rotation - cart. axis [0,0,-1]       

 cryst.   s( 7) = (     0         -1          0      )
                  (     1          0          0      )
                  (     0          0          1      )

 cart.    s( 7) = (  0.0000000  1.0000000  0.0000000 )
                  ( -1.0000000  0.0000000  0.0000000 )
                  (  0.0000000  0.0000000  1.0000000 )


      isym =  8      90 deg rotation - cart. axis [0,0,1]        

 cryst.   s( 8) = (     0          1          0      )
                  (    -1          0          0      )
                  (     0          0          1      )

 cart.    s( 8) = (  0.0000000 -1.0000000  0.0000000 )
                  (  1.0000000  0.0000000  0.0000000 )
                  (  0.0000000  0.0000000  1.0000000 )


      isym =  9     180 deg rotation - cart. axis [1,0,1]        

 cryst.   s( 9) = (     0          0          1      )
                  (     0         -1          0      )
                  (     1          0          0      )

 cart.    s( 9) = (  0.0000000  0.0000000  1.0000000 )
                  (  0.0000000 -1.0000000  0.0000000 )
                  (  1.0000000  0.0000000  0.0000000 )


      isym = 10     180 deg rotation - cart. axis [-1,0,1]       

 cryst.   s(10) = (     0          0         -1      )
                  (     0         -1          0      )
                  (    -1          0          0      )

 cart.    s(10) = (  0.0000000  0.0000000 -1.0000000 )
                  (  0.0000000 -1.0000000  0.0000000 )
                  ( -1.0000000  0.0000000  0.0000000 )


      isym = 11      90 deg rotation - cart. axis [0,1,0]        

 cryst.   s(11) = (     0          0         -1      )
                  (     0          1          0      )
                  (     1          0          0      )

 cart.    s(11) = (  0.0000000  0.0000000  1.0000000 )
                  (  0.0000000  1.0000000  0.0000000 )
                  ( -1.0000000  0.0000000  0.0000000 )


      isym = 12      90 deg rotation - cart. axis [0,-1,0]       

 cryst.   s(12) = (     0          0          1      )
                  (     0          1          0      )
                  (    -1          0          0      )

 cart.    s(12) = (  0.0000000  0.0000000 -1.0000000 )
                  (  0.0000000  1.0000000  0.0000000 )
                  (  1.0000000  0.0000000  0.0000000 )


      isym = 13     180 deg rotation - cart. axis [0,1,1]        

 cryst.   s(13) = (    -1          0          0      )
                  (     0          0          1      )
                  (     0          1          0      )

 cart.    s(13) = ( -1.0000000  0.0000000  0.0000000 )
                  (  0.0000000  0.0000000  1.0000000 )
                  (  0.0000000  1.0000000  0.0000000 )


      isym = 14     180 deg rotation - cart. axis [0,1,-1]       

 cryst.   s(14) = (    -1          0          0      )
                  (     0          0         -1      )
                  (     0         -1          0      )

 cart.    s(14) = ( -1.0000000  0.0000000  0.0000000 )
                  (  0.0000000  0.0000000 -1.0000000 )
                  (  0.0000000 -1.0000000  0.0000000 )


      isym = 15      90 deg rotation - cart. axis [-1,0,0]       

 cryst.   s(15) = (     1          0          0      )
                  (     0          0         -1      )
                  (     0          1          0      )

 cart.    s(15) = (  1.0000000  0.0000000  0.0000000 )
                  (  0.0000000  0.0000000  1.0000000 )
                  (  0.0000000 -1.0000000  0.0000000 )


      isym = 16      90 deg rotation - cart. axis [1,0,0]        

 cryst.   s(16) = (     1          0          0      )
                  (     0          0          1      )
                  (     0         -1          0      )

 cart.    s(16) = (  1.0000000  0.0000000  0.0000000 )
                  (  0.0000000  0.0000000 -1.0000000 )
                  (  0.0000000  1.0000000  0.0000000 )


      isym = 17     120 deg rotation - cart. axis [-1,-1,-1]     

 cryst.   s(17) = (     0          0          1      )
                  (     1          0          0      )
                  (     0          1          0      )

 cart.    s(17) = (  0.0000000  1.0000000  0.0000000 )
                  (  0.0000000  0.0000000  1.0000000 )
                  (  1.0000000  0.0000000  0.0000000 )


      isym = 18     120 deg rotation - cart. axis [-1,1,1]       

 cryst.   s(18) = (     0          0         -1      )
                  (    -1          0          0      )
                  (     0          1          0      )

 cart.    s(18) = (  0.0000000 -1.0000000  0.0000000 )
                  (  0.0000000  0.0000000  1.0000000 )
                  ( -1.0000000  0.0000000  0.0000000 )


      isym = 19     120 deg rotation - cart. axis [1,1,-1]       

 cryst.   s(19) = (     0          0         -1      )
                  (     1          0          0      )
                  (     0         -1          0      )

 cart.    s(19) = (  0.0000000  1.0000000  0.0000000 )
                  (  0.0000000  0.0000000 -1.0000000 )
                  ( -1.0000000  0.0000000  0.0000000 )


      isym = 20     120 deg rotation - cart. axis [1,-1,1]       

 cryst.   s(20) = (     0          0          1      )
                  (    -1          0          0      )
                  (     0         -1          0      )

 cart.    s(20) = (  0.0000000 -1.0000000  0.0000000 )
                  (  0.0000000  0.0000000 -1.0000000 )
                  (  1.0000000  0.0000000  0.0000000 )


      isym = 21     120 deg rotation - cart. axis [1,1,1]        

 cryst.   s(21) = (     0          1          0      )
                  (     0          0          1      )
                  (     1          0          0      )

 cart.    s(21) = (  0.0000000  0.0000000  1.0000000 )
                  (  1.0000000  0.0000000  0.0000000 )
                  (  0.0000000  1.0000000  0.0000000 )


      isym = 22     120 deg rotation - cart. axis [-1,1,-1]      

 cryst.   s(22) = (     0         -1          0      )
                  (     0          0         -1      )
                  (     1          0          0      )

 cart.    s(22) = (  0.0000000  0.0000000  1.0000000 )
                  ( -1.0000000  0.0000000  0.0000000 )
                  (  0.0000000 -1.0000000  0.0000000 )


      isym = 23     120 deg rotation - cart. axis [1,-1,-1]      

 cryst.   s(23) = (     0         -1          0      )
                  (     0          0          1      )
                  (    -1          0          0      )

 cart.    s(23) = (  0.0000000  0.0000000 -1.0000000 )
                  ( -1.0000000  0.0000000  0.0000000 )
                  (  0.0000000  1.0000000  0.0000000 )


      isym = 24     120 deg rotation - cart. axis [-1,-1,1]      

 cryst.   s(24) = (     0          1          0      )
                  (     0          0         -1      )
                  (    -1          0          0      )

 cart.    s(24) = (  0.0000000  0.0000000 -1.0000000 )
                  (  1.0000000  0.0000000  0.0000000 )
                  (  0.0000000 -1.0000000  0.0000000 )


      isym = 25     inversion                                    

 cryst.   s(25) = (    -1          0          0      )
                  (     0         -1          0      )
                  (     0          0         -1      )

 cart.    s(25) = ( -1.0000000  0.0000000  0.0000000 )
                  (  0.0000000 -1.0000000  0.0000000 )
                  (  0.0000000  0.0000000 -1.0000000 )


      isym = 26     inv. 180 deg rotation - cart. axis [0,0,1]   

 cryst.   s(26) = (     1          0          0      )
                  (     0          1          0      )
                  (     0          0         -1      )

 cart.    s(26) = (  1.0000000  0.0000000  0.0000000 )
                  (  0.0000000  1.0000000  0.0000000 )
                  (  0.0000000  0.0000000 -1.0000000 )


      isym = 27     inv. 180 deg rotation - cart. axis [0,1,0]   

 cryst.   s(27) = (     1          0          0      )
                  (     0         -1          0      )
                  (     0          0          1      )

 cart.    s(27) = (  1.0000000  0.0000000  0.0000000 )
                  (  0.0000000 -1.0000000  0.0000000 )
                  (  0.0000000  0.0000000  1.0000000 )


      isym = 28     inv. 180 deg rotation - cart. axis [1,0,0]   

 cryst.   s(28) = (    -1          0          0      )
                  (     0          1          0      )
                  (     0          0          1      )

 cart.    s(28) = ( -1.0000000  0.0000000  0.0000000 )
                  (  0.0000000  1.0000000  0.0000000 )
                  (  0.0000000  0.0000000  1.0000000 )


      isym = 29     inv. 180 deg rotation - cart. axis [1,1,0]   

 cryst.   s(29) = (     0         -1          0      )
                  (    -1          0          0      )
                  (     0          0          1      )

 cart.    s(29) = (  0.0000000 -1.0000000  0.0000000 )
                  ( -1.0000000  0.0000000  0.0000000 )
                  (  0.0000000  0.0000000  1.0000000 )


      isym = 30     inv. 180 deg rotation - cart. axis [1,-1,0]  

 cryst.   s(30) = (     0          1          0      )
                  (     1          0          0      )
                  (     0          0          1      )

 cart.    s(30) = (  0.0000000  1.0000000  0.0000000 )
                  (  1.0000000  0.0000000  0.0000000 )
                  (  0.0000000  0.0000000  1.0000000 )


      isym = 31     inv.  90 deg rotation - cart. axis [0,0,-1]  

 cryst.   s(31) = (     0          1          0      )
                  (    -1          0          0      )
                  (     0          0         -1      )

 cart.    s(31) = (  0.0000000 -1.0000000  0.0000000 )
                  (  1.0000000  0.0000000  0.0000000 )
                  (  0.0000000  0.0000000 -1.0000000 )


      isym = 32     inv.  90 deg rotation - cart. axis [0,0,1]   

 cryst.   s(32) = (     0         -1          0      )
                  (     1          0          0      )
                  (     0          0         -1      )

 cart.    s(32) = (  0.0000000  1.0000000  0.0000000 )
                  ( -1.0000000  0.0000000  0.0000000 )
                  (  0.0000000  0.0000000 -1.0000000 )


      isym = 33     inv. 180 deg rotation - cart. axis [1,0,1]   

 cryst.   s(33) = (     0          0         -1      )
                  (     0          1          0      )
                  (    -1          0          0      )

 cart.    s(33) = (  0.0000000  0.0000000 -1.0000000 )
                  (  0.0000000  1.0000000  0.0000000 )
                  ( -1.0000000  0.0000000  0.0000000 )


      isym = 34     inv. 180 deg rotation - cart. axis [-1,0,1]  

 cryst.   s(34) = (     0          0          1      )
                  (     0          1          0      )
                  (     1          0          0      )

 cart.    s(34) = (  0.0000000  0.0000000  1.0000000 )
                  (  0.0000000  1.0000000  0.0000000 )
                  (  1.0000000  0.0000000  0.0000000 )


      isym = 35     inv.  90 deg rotation - cart. axis [0,1,0]   

 cryst.   s(35) = (     0          0          1      )
                  (     0         -1          0      )
                  (    -1          0          0      )

 cart.    s(35) = (  0.0000000  0.0000000 -1.0000000 )
                  (  0.0000000 -1.0000000  0.0000000 )
                  (  1.0000000  0.0000000  0.0000000 )


      isym = 36     inv.  90 deg rotation - cart. axis [0,-1,0]  

 cryst.   s(36) = (     0          0         -1      )
                  (     0         -1          0      )
                  (     1          0          0      )

 cart.    s(36) = (  0.0000000  0.0000000  1.0000000 )
                  (  0.0000000 -1.0000000  0.0000000 )
                  ( -1.0000000  0.0000000  0.0000000 )


      isym = 37     inv. 180 deg rotation - cart. axis [0,1,1]   

 cryst.   s(37) = (     1          0          0      )
                  (     0          0         -1      )
                  (     0         -1          0      )

 cart.    s(37) = (  1.0000000  0.0000000  0.0000000 )
                  (  0.0000000  0.0000000 -1.0000000 )
                  (  0.0000000 -1.0000000  0.0000000 )


      isym = 38     inv. 180 deg rotation - cart. axis [0,1,-1]  

 cryst.   s(38) = (     1          0          0      )
                  (     0          0          1      )
                  (     0          1          0      )

 cart.    s(38) = (  1.0000000  0.0000000  0.0000000 )
                  (  0.0000000  0.0000000  1.0000000 )
                  (  0.0000000  1.0000000  0.0000000 )


      isym = 39     inv.  90 deg rotation - cart. axis [-1,0,0]  

 cryst.   s(39) = (    -1          0          0      )
                  (     0          0          1      )
                  (     0         -1          0      )

 cart.    s(39) = ( -1.0000000  0.0000000  0.0000000 )
                  (  0.0000000  0.0000000 -1.0000000 )
                  (  0.0000000  1.0000000  0.0000000 )


      isym = 40     inv.  90 deg rotation - cart. axis [1,0,0]   

 cryst.   s(40) = (    -1          0          0      )
                  (     0          0         -1      )
                  (     0          1          0      )

 cart.    s(40) = ( -1.0000000  0.0000000  0.0000000 )
                  (  0.0000000  0.0000000  1.0000000 )
                  (  0.0000000 -1.0000000  0.0000000 )


      isym = 41     inv. 120 deg rotation - cart. axis [-1,-1,-1]

 cryst.   s(41) = (     0          0         -1      )
                  (    -1          0          0      )
                  (     0         -1          0      )

 cart.    s(41) = (  0.0000000 -1.0000000  0.0000000 )
                  (  0.0000000  0.0000000 -1.0000000 )
                  ( -1.0000000  0.0000000  0.0000000 )


      isym = 42     inv. 120 deg rotation - cart. axis [-1,1,1]  

 cryst.   s(42) = (     0          0          1      )
                  (     1          0          0      )
                  (     0         -1          0      )

 cart.    s(42) = (  0.0000000  1.0000000  0.0000000 )
                  (  0.0000000  0.0000000 -1.0000000 )
                  (  1.0000000  0.0000000  0.0000000 )


      isym = 43     inv. 120 deg rotation - cart. axis [1,1,-1]  

 cryst.   s(43) = (     0          0          1      )
                  (    -1          0          0      )
                  (     0          1          0      )

 cart.    s(43) = (  0.0000000 -1.0000000  0.0000000 )
                  (  0.0000000  0.0000000  1.0000000 )
                  (  1.0000000  0.0000000  0.0000000 )


      isym = 44     inv. 120 deg rotation - cart. axis [1,-1,1]  

 cryst.   s(44) = (     0          0         -1      )
                  (     1          0          0      )
                  (     0          1          0      )

 cart.    s(44) = (  0.0000000  1.0000000  0.0000000 )
                  (  0.0000000  0.0000000  1.0000000 )
                  ( -1.0000000  0.0000000  0.0000000 )


      isym = 45     inv. 120 deg rotation - cart. axis [1,1,1]   

 cryst.   s(45) = (     0         -1          0      )
                  (     0          0         -1      )
                  (    -1          0          0      )

 cart.    s(45) = (  0.0000000  0.0000000 -1.0000000 )
                  ( -1.0000000  0.0000000  0.0000000 )
                  (  0.0000000 -1.0000000  0.0000000 )


      isym = 46     inv. 120 deg rotation - cart. axis [-1,1,-1] 

 cryst.   s(46) = (     0          1          0      )
                  (     0          0          1      )
                  (    -1          0          0      )

 cart.    s(46) = (  0.0000000  0.0000000 -1.0000000 )
                  (  1.0000000  0.0000000  0.0000000 )
                  (  0.0000000  1.0000000  0.0000000 )


      isym = 47     inv. 120 deg rotation - cart. axis [1,-1,-1] 

 cryst.   s(47) = (     0          1          0      )
                  (     0          0         -1      )
                  (     1          0          0      )

 cart.    s(47) = (  0.0000000  0.0000000  1.0000000 )
                  (  1.0000000  0.0000000  0.0000000 )
                  (  0.0000000 -1.0000000  0.0000000 )


      isym = 48     inv. 120 deg rotation - cart. axis [-1,-1,1] 

 cryst.   s(48) = (     0         -1          0      )
                  (     0          0          1      )
                  (     1          0          0      )

 cart.    s(48) = (  0.0000000  0.0000000  1.0000000 )
                  ( -1.0000000  0.0000000  0.0000000 )
                  (  0.0000000  1.0000000  0.0000000 )


     point group O_h (m-3m) 
     there are 10 classes
     the character table:

       E     8C3   3C2   6C4   6C2'  i     8S6   3s_h  6S4   6s_d 
A_1g   1.00  1.00  1.00  1.00  1.00  1.00  1.00  1.00  1.00  1.00
A_2g   1.00  1.00  1.00 -1.00 -1.00  1.00  1.00  1.00 -1.00 -1.00
E_g    2.00 -1.00  2.00  0.00  0.00  2.00 -1.00  2.00  0.00  0.00
T_1g   3.00  0.00 -1.00  1.00 -1.00  3.00  0.00 -1.00  1.00 -1.00
T_2g   3.00  0.00 -1.00 -1.00  1.00  3.00  0.00 -1.00 -1.00  1.00
A_1u   1.00  1.00  1.00  1.00  1.00 -1.00 -1.00 -1.00 -1.00 -1.00
A_2u   1.00  1.00  1.00 -1.00 -1.00 -1.00 -1.00 -1.00  1.00  1.00
E_u    2.00 -1.00  2.00  0.00  0.00 -2.00  1.00 -2.00  0.00  0.00
T_1u   3.00  0.00 -1.00  1.00 -1.00 -3.00  0.00  1.00 -1.00  1.00
T_2u   3.00  0.00 -1.00 -1.00  1.00 -3.00  0.00  1.00  1.00 -1.00

     the symmetry operations in each class and the name of the first element:

     E        1
          identity                                               
     8C3     17   19   20   18   24   21   22   23
          120 deg rotation - cart. axis [-1,-1,-1]               
     3C2      2    4    3
          180 deg rotation - cart. axis [0,0,1]                  
     6C4      7    8   15   16   12   11
           90 deg rotation - cart. axis [0,0,-1]                 
     6C2'     5    6   14   13   10    9
          180 deg rotation - cart. axis [1,1,0]                  
     i       25
          inversion                                              
     8S6     41   43   44   42   48   45   46   47
          inv. 120 deg rotation - cart. axis [-1,-1,-1]          
     3s_h    26   28   27
          inv. 180 deg rotation - cart. axis [0,0,1]             
     6S4     31   32   39   40   36   35
          inv.  90 deg rotation - cart. axis [0,0,-1]            
     6s_d    29   30   38   37   34   33
          inv. 180 deg rotation - cart. axis [1,1,0]             

   Cartesian axes

     site n.     atom                  positions (alat units)
         1        Cs     tau(   1) = (   0.7500000   0.7500000   0.7500000  )
         2        Cs     tau(   2) = (   0.2500000   0.7500000   0.2500000  )
         3        Cs     tau(   3) = (   0.7500000   0.2500000   0.2500000  )
         4        Cs     tau(   4) = (   0.2500000   0.2500000   0.7500000  )
         5        Cs     tau(   5) = (   0.7500000   0.7500000   0.2500000  )
         6        Cs     tau(   6) = (   0.7500000   0.2500000   0.7500000  )
         7        Cs     tau(   7) = (   0.2500000   0.7500000   0.7500000  )
         8        Cs     tau(   8) = (   0.2500000   0.2500000   0.2500000  )
         9        Zn     tau(   9) = (   0.0000000   0.0000000   0.0000000  )
        10        Pb     tau(  10) = (   0.0000000   0.5000000   0.0000000  )
        11        Pb     tau(  11) = (   0.5000000   0.0000000   0.0000000  )
        12        Pb     tau(  12) = (   0.0000000   0.0000000   0.5000000  )
        13        Pb     tau(  13) = (   0.0000000   0.5000000   0.5000000  )
        14        Pb     tau(  14) = (   0.5000000   0.5000000   0.0000000  )
        15        Pb     tau(  15) = (   0.5000000   0.0000000   0.5000000  )
        16        Pb     tau(  16) = (   0.5000000   0.5000000   0.5000000  )
        17        I      tau(  17) = (   0.0000000   0.2500000   0.0000000  )
        18        I      tau(  18) = (   0.0000000   0.7500000   0.0000000  )
        19        I      tau(  19) = (   0.2500000   0.0000000   0.0000000  )
        20        I      tau(  20) = (   0.7500000   0.0000000   0.0000000  )
        21        I      tau(  21) = (   0.0000000   0.0000000   0.7500000  )
        22        I      tau(  22) = (   0.0000000   0.0000000   0.2500000  )
        23        I      tau(  23) = (   0.5000000   0.0000000   0.7500000  )
        24        I      tau(  24) = (   0.5000000   0.0000000   0.2500000  )
        25        I      tau(  25) = (   0.7500000   0.5000000   0.0000000  )
        26        I      tau(  26) = (   0.2500000   0.5000000   0.0000000  )
        27        I      tau(  27) = (   0.0000000   0.7500000   0.5000000  )
        28        I      tau(  28) = (   0.0000000   0.2500000   0.5000000  )
        29        I      tau(  29) = (   0.0000000   0.5000000   0.2500000  )
        30        I      tau(  30) = (   0.0000000   0.5000000   0.7500000  )
        31        I      tau(  31) = (   0.5000000   0.7500000   0.0000000  )
        32        I      tau(  32) = (   0.5000000   0.2500000   0.0000000  )
        33        I      tau(  33) = (   0.7500000   0.0000000   0.5000000  )
        34        I      tau(  34) = (   0.2500000   0.0000000   0.5000000  )
        35        I      tau(  35) = (   0.7500000   0.5000000   0.5000000  )
        36        I      tau(  36) = (   0.2500000   0.5000000   0.5000000  )
        37        I      tau(  37) = (   0.5000000   0.5000000   0.2500000  )
        38        I      tau(  38) = (   0.5000000   0.5000000   0.7500000  )
        39        I      tau(  39) = (   0.5000000   0.7500000   0.5000000  )
        40        I      tau(  40) = (   0.5000000   0.2500000   0.5000000  )

   Crystallographic axes

     site n.     atom                  positions (cryst. coord.)
         1        Cs     tau(   1) = (  0.7500000  0.7500000  0.7500000  )
         2        Cs     tau(   2) = (  0.2500000  0.7500000  0.2500000  )
         3        Cs     tau(   3) = (  0.7500000  0.2500000  0.2500000  )
         4        Cs     tau(   4) = (  0.2500000  0.2500000  0.7500000  )
         5        Cs     tau(   5) = (  0.7500000  0.7500000  0.2500000  )
         6        Cs     tau(   6) = (  0.7500000  0.2500000  0.7500000  )
         7        Cs     tau(   7) = (  0.2500000  0.7500000  0.7500000  )
         8        Cs     tau(   8) = (  0.2500000  0.2500000  0.2500000  )
         9        Zn     tau(   9) = (  0.0000000  0.0000000  0.0000000  )
        10        Pb     tau(  10) = (  0.0000000  0.5000000  0.0000000  )
        11        Pb     tau(  11) = (  0.5000000  0.0000000  0.0000000  )
        12        Pb     tau(  12) = (  0.0000000  0.0000000  0.5000000  )
        13        Pb     tau(  13) = (  0.0000000  0.5000000  0.5000000  )
        14        Pb     tau(  14) = (  0.5000000  0.5000000  0.0000000  )
        15        Pb     tau(  15) = (  0.5000000  0.0000000  0.5000000  )
        16        Pb     tau(  16) = (  0.5000000  0.5000000  0.5000000  )
        17        I      tau(  17) = (  0.0000000  0.2500000  0.0000000  )
        18        I      tau(  18) = (  0.0000000  0.7500000  0.0000000  )
        19        I      tau(  19) = (  0.2500000  0.0000000  0.0000000  )
        20        I      tau(  20) = (  0.7500000  0.0000000  0.0000000  )
        21        I      tau(  21) = (  0.0000000  0.0000000  0.7500000  )
        22        I      tau(  22) = (  0.0000000  0.0000000  0.2500000  )
        23        I      tau(  23) = (  0.5000000  0.0000000  0.7500000  )
        24        I      tau(  24) = (  0.5000000  0.0000000  0.2500000  )
        25        I      tau(  25) = (  0.7500000  0.5000000  0.0000000  )
        26        I      tau(  26) = (  0.2500000  0.5000000  0.0000000  )
        27        I      tau(  27) = (  0.0000000  0.7500000  0.5000000  )
        28        I      tau(  28) = (  0.0000000  0.2500000  0.5000000  )
        29        I      tau(  29) = (  0.0000000  0.5000000  0.2500000  )
        30        I      tau(  30) = (  0.0000000  0.5000000  0.7500000  )
        31        I      tau(  31) = (  0.5000000  0.7500000  0.0000000  )
        32        I      tau(  32) = (  0.5000000  0.2500000  0.0000000  )
        33        I      tau(  33) = (  0.7500000  0.0000000  0.5000000  )
        34        I      tau(  34) = (  0.2500000  0.0000000  0.5000000  )
        35        I      tau(  35) = (  0.7500000  0.5000000  0.5000000  )
        36        I      tau(  36) = (  0.2500000  0.5000000  0.5000000  )
        37        I      tau(  37) = (  0.5000000  0.5000000  0.2500000  )
        38        I      tau(  38) = (  0.5000000  0.5000000  0.7500000  )
        39        I      tau(  39) = (  0.5000000  0.7500000  0.5000000  )
        40        I      tau(  40) = (  0.5000000  0.2500000  0.5000000  )

     number of k points=    10  Marzari-Vanderbilt smearing, width (Ry)=  0.1470
                       cart. coord. in units 2pi/alat
        k(    1) = (   0.0000000   0.0000000   0.0000000), wk =   0.0312500
        k(    2) = (   0.0000000   0.0000000   0.2500000), wk =   0.1875000
        k(    3) = (   0.0000000   0.0000000  -0.5000000), wk =   0.0937500
        k(    4) = (   0.0000000   0.2500000   0.2500000), wk =   0.3750000
        k(    5) = (   0.0000000   0.2500000  -0.5000000), wk =   0.3750000
        k(    6) = (   0.0000000  -0.5000000  -0.5000000), wk =   0.0937500
        k(    7) = (   0.2500000   0.2500000   0.2500000), wk =   0.2500000
        k(    8) = (   0.2500000   0.2500000  -0.5000000), wk =   0.3750000
        k(    9) = (   0.2500000  -0.5000000  -0.5000000), wk =   0.1875000
        k(   10) = (  -0.5000000  -0.5000000  -0.5000000), wk =   0.0312500

                       cryst. coord.
        k(    1) = (   0.0000000   0.0000000   0.0000000), wk =   0.0312500
        k(    2) = (   0.0000000   0.0000000   0.2500000), wk =   0.1875000
        k(    3) = (   0.0000000   0.0000000  -0.5000000), wk =   0.0937500
        k(    4) = (   0.0000000   0.2500000   0.2500000), wk =   0.3750000
        k(    5) = (   0.0000000   0.2500000  -0.5000000), wk =   0.3750000
        k(    6) = (   0.0000000  -0.5000000  -0.5000000), wk =   0.0937500
        k(    7) = (   0.2500000   0.2500000   0.2500000), wk =   0.2500000
        k(    8) = (   0.2500000   0.2500000  -0.5000000), wk =   0.3750000
        k(    9) = (   0.2500000  -0.5000000  -0.5000000), wk =   0.1875000
        k(   10) = (  -0.5000000  -0.5000000  -0.5000000), wk =   0.0312500

     Dense  grid:  1305079 G-vectors     FFT dimensions: ( 135, 135, 135)

     Smooth grid:   461335 G-vectors     FFT dimensions: (  96,  96,  96)

     Dynamical RAM for                 wfc:      23.65 MB

     Dynamical RAM for     wfc (w. buffer):     260.12 MB

     Dynamical RAM for           str. fact:       9.96 MB

     Dynamical RAM for           local pot:       0.00 MB

     Dynamical RAM for          nlocal pot:      52.79 MB

     Dynamical RAM for                qrad:      11.49 MB

     Dynamical RAM for          rho,v,vnew:      14.56 MB

     Dynamical RAM for               rhoin:       4.85 MB

     Dynamical RAM for            rho*nmix:      39.83 MB

     Dynamical RAM for           G-vectors:       9.77 MB

     Dynamical RAM for          h,s,v(r/c):       8.46 MB

     Dynamical RAM for          <psi|beta>:       1.57 MB

     Dynamical RAM for                 psi:      47.29 MB

     Dynamical RAM for                hpsi:      47.29 MB

     Dynamical RAM for                spsi:      47.29 MB

     Dynamical RAM for      wfcinit/wfcrot:      48.35 MB

     Dynamical RAM for           addusdens:     522.74 MB

     Dynamical RAM for          addusforce:     638.59 MB

     Dynamical RAM for         addusstress:     500.34 MB

     Estimated static dynamical RAM per process >     387.80 MB

     Estimated max dynamical RAM per process >       1.04 GB

     Estimated total dynamical RAM >       8.33 GB

     Initial potential from superposition of free atoms

     starting charge     357.6665, renormalised to     357.0000
     Starting wfcs are  276 randomized atomic wfcs
     Checking if some PAW data can be deallocated... 
       PAW data deallocated on    3 nodes for type:  2
       PAW data deallocated on    5 nodes for type:  3

     total cpu time spent up to now is       40.7 secs

     Self-consistent Calculation
[tb_dev] Currently allocated     8.88E+00 Mbytes, locked:    0 /   6
[tb_pin] Currently allocated     0.00E+00 Mbytes, locked:    0 /   0

     iteration #  1     ecut=    40.00 Ry     beta= 0.70
     Davidson diagonalization with overlap

---- Real-time Memory Report at c_bands before calling an iterative solver
          1101 MiB given to the printing process from OS
             0 MiB allocation reported by mallinfo(arena+hblkhd)
         19175 MiB available memory on the node where the printing process lives
     GPU memory used/free/total (MiB): 9583 / 2345 / 11928
------------------
     ethr =  1.00E-02,  avg # of iterations =  3.4

     Threshold (ethr) on eigenvalues was too large:
     Diagonalizing with lowered threshold

     Davidson diagonalization with overlap

---- Real-time Memory Report at c_bands before calling an iterative solver
          1130 MiB given to the printing process from OS
             0 MiB allocation reported by mallinfo(arena+hblkhd)
         19109 MiB available memory on the node where the printing process lives
     GPU memory used/free/total (MiB): 9969 / 1959 / 11928
------------------
     c_bands:  1 eigenvalues not converged
     ethr =  1.88E-04,  avg # of iterations =  9.9

     total cpu time spent up to now is      262.9 secs

     total energy              =  -16155.46615169 Ry
     estimated scf accuracy    <       0.58207890 Ry
[tb_dev] Currently allocated     3.05E-04 Mbytes, locked:    0 /   2
[tb_pin] Currently allocated     0.00E+00 Mbytes, locked:    0 /   0

     iteration #  2     ecut=    40.00 Ry     beta= 0.70
     Davidson diagonalization with overlap

---- Real-time Memory Report at c_bands before calling an iterative solver
          1146 MiB given to the printing process from OS
             0 MiB allocation reported by mallinfo(arena+hblkhd)
         19013 MiB available memory on the node where the printing process lives
     GPU memory used/free/total (MiB): 10097 / 1831 / 11928
------------------
     ethr =  1.63E-04,  avg # of iterations =  3.6

     total cpu time spent up to now is      374.1 secs

     total energy              =  -16155.61671502 Ry
     estimated scf accuracy    <       0.29097004 Ry
[tb_dev] Currently allocated     3.05E-04 Mbytes, locked:    0 /   2
[tb_pin] Currently allocated     0.00E+00 Mbytes, locked:    0 /   0

     iteration #  3     ecut=    40.00 Ry     beta= 0.70
     Davidson diagonalization with overlap

---- Real-time Memory Report at c_bands before calling an iterative solver
          1149 MiB given to the printing process from OS
             0 MiB allocation reported by mallinfo(arena+hblkhd)
         18960 MiB available memory on the node where the printing process lives
     GPU memory used/free/total (MiB): 10097 / 1831 / 11928
------------------
     ethr =  8.15E-05,  avg # of iterations =  2.5

     total cpu time spent up to now is      477.2 secs

     total energy              =  -16155.66191635 Ry
     estimated scf accuracy    <       0.13171925 Ry
[tb_dev] Currently allocated     3.05E-04 Mbytes, locked:    0 /   2
[tb_pin] Currently allocated     0.00E+00 Mbytes, locked:    0 /   0

     iteration #  4     ecut=    40.00 Ry     beta= 0.70
     Davidson diagonalization with overlap

---- Real-time Memory Report at c_bands before calling an iterative solver
          1153 MiB given to the printing process from OS
             0 MiB allocation reported by mallinfo(arena+hblkhd)
         18949 MiB available memory on the node where the printing process lives
     GPU memory used/free/total (MiB): 10097 / 1831 / 11928
------------------
     c_bands:  1 eigenvalues not converged
     ethr =  3.69E-05,  avg # of iterations =  7.9

     total cpu time spent up to now is      590.1 secs

     total energy              =  -16155.67876162 Ry
     estimated scf accuracy    <       0.17996645 Ry
[tb_dev] Currently allocated     3.05E-04 Mbytes, locked:    0 /   2
[tb_pin] Currently allocated     0.00E+00 Mbytes, locked:    0 /   0

     iteration #  5     ecut=    40.00 Ry     beta= 0.70
     Davidson diagonalization with overlap

---- Real-time Memory Report at c_bands before calling an iterative solver
          1158 MiB given to the printing process from OS
             0 MiB allocation reported by mallinfo(arena+hblkhd)
         18918 MiB available memory on the node where the printing process lives
     GPU memory used/free/total (MiB): 10097 / 1831 / 11928
------------------
     ethr =  3.69E-05,  avg # of iterations =  2.4

     total cpu time spent up to now is      683.0 secs

     total energy              =  -16155.68879609 Ry
     estimated scf accuracy    <       0.03948943 Ry
[tb_dev] Currently allocated     3.05E-04 Mbytes, locked:    0 /   2
[tb_pin] Currently allocated     0.00E+00 Mbytes, locked:    0 /   0

     iteration #  6     ecut=    40.00 Ry     beta= 0.70
     Davidson diagonalization with overlap

---- Real-time Memory Report at c_bands before calling an iterative solver
          1160 MiB given to the printing process from OS
             0 MiB allocation reported by mallinfo(arena+hblkhd)
         18878 MiB available memory on the node where the printing process lives
     GPU memory used/free/total (MiB): 10097 / 1831 / 11928
------------------
     c_bands:  1 eigenvalues not converged
     ethr =  1.11E-05,  avg # of iterations =  7.6

     total cpu time spent up to now is      790.7 secs

     total energy              =  -16155.69514017 Ry
     estimated scf accuracy    <       0.00226767 Ry
[tb_dev] Currently allocated     3.05E-04 Mbytes, locked:    0 /   2
[tb_pin] Currently allocated     0.00E+00 Mbytes, locked:    0 /   0

     iteration #  7     ecut=    40.00 Ry     beta= 0.70
     Davidson diagonalization with overlap

---- Real-time Memory Report at c_bands before calling an iterative solver
          1162 MiB given to the printing process from OS
             0 MiB allocation reported by mallinfo(arena+hblkhd)
         18796 MiB available memory on the node where the printing process lives
     GPU memory used/free/total (MiB): 10097 / 1831 / 11928
------------------
     c_bands:  3 eigenvalues not converged
     c_bands:  1 eigenvalues not converged
     c_bands:  2 eigenvalues not converged
     ethr =  6.35E-07,  avg # of iterations = 15.0

     total cpu time spent up to now is      963.5 secs

     total energy              =  -16155.69690563 Ry
     estimated scf accuracy    <       0.00045590 Ry
[tb_dev] Currently allocated     3.05E-04 Mbytes, locked:    0 /   2
[tb_pin] Currently allocated     0.00E+00 Mbytes, locked:    0 /   0

     iteration #  8     ecut=    40.00 Ry     beta= 0.70
     Davidson diagonalization with overlap

---- Real-time Memory Report at c_bands before calling an iterative solver
          1164 MiB given to the printing process from OS
             0 MiB allocation reported by mallinfo(arena+hblkhd)
         18783 MiB available memory on the node where the printing process lives
     GPU memory used/free/total (MiB): 10097 / 1831 / 11928
------------------
     c_bands:  3 eigenvalues not converged
     c_bands:  1 eigenvalues not converged
     ethr =  1.28E-07,  avg # of iterations =  8.0

     total cpu time spent up to now is     1082.0 secs

     total energy              =  -16155.69699898 Ry
     estimated scf accuracy    <       0.00002858 Ry
[tb_dev] Currently allocated     3.05E-04 Mbytes, locked:    0 /   2
[tb_pin] Currently allocated     0.00E+00 Mbytes, locked:    0 /   0

     iteration #  9     ecut=    40.00 Ry     beta= 0.70
     Davidson diagonalization with overlap

---- Real-time Memory Report at c_bands before calling an iterative solver
          1167 MiB given to the printing process from OS
             0 MiB allocation reported by mallinfo(arena+hblkhd)
         18747 MiB available memory on the node where the printing process lives
     GPU memory used/free/total (MiB): 10097 / 1831 / 11928
------------------
     ethr =  8.01E-09,  avg # of iterations =  6.1

     total cpu time spent up to now is     1221.1 secs

     total energy              =  -16155.69701672 Ry
     estimated scf accuracy    <       0.00000891 Ry
[tb_dev] Currently allocated     3.05E-04 Mbytes, locked:    0 /   2
[tb_pin] Currently allocated     0.00E+00 Mbytes, locked:    0 /   0

     iteration # 10     ecut=    40.00 Ry     beta= 0.70
     Davidson diagonalization with overlap

---- Real-time Memory Report at c_bands before calling an iterative solver
          1171 MiB given to the printing process from OS
             0 MiB allocation reported by mallinfo(arena+hblkhd)
         18711 MiB available memory on the node where the printing process lives
     GPU memory used/free/total (MiB): 10097 / 1831 / 11928
------------------
     ethr =  2.49E-09,  avg # of iterations =  4.4

     total cpu time spent up to now is     1336.2 secs

     total energy              =  -16155.69701933 Ry
     estimated scf accuracy    <       0.00000196 Ry
[tb_dev] Currently allocated     3.05E-04 Mbytes, locked:    0 /   2
[tb_pin] Currently allocated     0.00E+00 Mbytes, locked:    0 /   0

     iteration # 11     ecut=    40.00 Ry     beta= 0.70
     Davidson diagonalization with overlap

---- Real-time Memory Report at c_bands before calling an iterative solver
          1171 MiB given to the printing process from OS
             0 MiB allocation reported by mallinfo(arena+hblkhd)
         18696 MiB available memory on the node where the printing process lives
     GPU memory used/free/total (MiB): 10097 / 1831 / 11928
------------------
     ethr =  5.50E-10,  avg # of iterations =  4.8

     total cpu time spent up to now is     1449.3 secs

     total energy              =  -16155.69701986 Ry
     estimated scf accuracy    <       0.00000020 Ry
[tb_dev] Currently allocated     3.05E-04 Mbytes, locked:    0 /   2
[tb_pin] Currently allocated     0.00E+00 Mbytes, locked:    0 /   0

     iteration # 12     ecut=    40.00 Ry     beta= 0.70
     Davidson diagonalization with overlap

---- Real-time Memory Report at c_bands before calling an iterative solver
          1172 MiB given to the printing process from OS
             0 MiB allocation reported by mallinfo(arena+hblkhd)
         18684 MiB available memory on the node where the printing process lives
     GPU memory used/free/total (MiB): 10097 / 1831 / 11928
------------------
     ethr =  5.58E-11,  avg # of iterations =  5.7

     total cpu time spent up to now is     1612.6 secs

     total energy              =  -16155.69702002 Ry
     estimated scf accuracy    <       0.00000004 Ry
[tb_dev] Currently allocated     3.05E-04 Mbytes, locked:    0 /   2
[tb_pin] Currently allocated     0.00E+00 Mbytes, locked:    0 /   0

     iteration # 13     ecut=    40.00 Ry     beta= 0.70
     Davidson diagonalization with overlap

---- Real-time Memory Report at c_bands before calling an iterative solver
          1172 MiB given to the printing process from OS
             0 MiB allocation reported by mallinfo(arena+hblkhd)
         18656 MiB available memory on the node where the printing process lives
     GPU memory used/free/total (MiB): 10097 / 1831 / 11928
------------------
     ethr =  1.02E-11,  avg # of iterations =  5.0

     total cpu time spent up to now is     1726.8 secs

     total energy              =  -16155.69702004 Ry
     estimated scf accuracy    <       0.00000001 Ry
[tb_dev] Currently allocated     3.05E-04 Mbytes, locked:    0 /   2
[tb_pin] Currently allocated     0.00E+00 Mbytes, locked:    0 /   0

     iteration # 14     ecut=    40.00 Ry     beta= 0.70
     Davidson diagonalization with overlap

---- Real-time Memory Report at c_bands before calling an iterative solver
          1172 MiB given to the printing process from OS
             0 MiB allocation reported by mallinfo(arena+hblkhd)
         18614 MiB available memory on the node where the printing process lives
     GPU memory used/free/total (MiB): 10097 / 1831 / 11928
------------------
     ethr =  2.83E-12,  avg # of iterations =  5.1

     total cpu time spent up to now is     1854.2 secs

     total energy              =  -16155.69702004 Ry
     estimated scf accuracy    <       0.00000006 Ry
[tb_dev] Currently allocated     3.05E-04 Mbytes, locked:    0 /   2
[tb_pin] Currently allocated     0.00E+00 Mbytes, locked:    0 /   0

     iteration # 15     ecut=    40.00 Ry     beta= 0.70
     Davidson diagonalization with overlap

---- Real-time Memory Report at c_bands before calling an iterative solver
          1172 MiB given to the printing process from OS
             0 MiB allocation reported by mallinfo(arena+hblkhd)
         18588 MiB available memory on the node where the printing process lives
     GPU memory used/free/total (MiB): 10097 / 1831 / 11928
------------------
     ethr =  2.83E-12,  avg # of iterations =  2.6

     total cpu time spent up to now is     1948.9 secs

     total energy              =  -16155.69702005 Ry
     estimated scf accuracy    <          6.0E-09 Ry
[tb_dev] Currently allocated     3.05E-04 Mbytes, locked:    0 /   2
[tb_pin] Currently allocated     0.00E+00 Mbytes, locked:    0 /   0

     iteration # 16     ecut=    40.00 Ry     beta= 0.70
     Davidson diagonalization with overlap

---- Real-time Memory Report at c_bands before calling an iterative solver
          1172 MiB given to the printing process from OS
             0 MiB allocation reported by mallinfo(arena+hblkhd)
         18605 MiB available memory on the node where the printing process lives
     GPU memory used/free/total (MiB): 10097 / 1831 / 11928
------------------
     ethr =  1.68E-12,  avg # of iterations =  2.0

     total cpu time spent up to now is     2039.4 secs

     End of self-consistent calculation

          k = 0.0000 0.0000 0.0000 ( 57747 PWs)   bands (ev):

  -122.2775 -76.4516 -76.4516 -76.4516 -18.2958 -18.2955 -18.2955 -18.2955
   -18.2952 -18.2952 -18.2952 -18.2949 -13.5855 -13.5855 -13.5805 -13.5778
   -13.5778 -13.5760 -13.5677 -13.5677 -13.5536 -13.5536 -13.5513 -13.5459
   -13.5450 -13.5450 -13.5197 -13.5197 -13.5197 -13.5190 -13.5190 -13.5190
   -13.5189 -13.5189 -13.5189 -13.5188 -13.5188 -13.5188 -13.5002 -13.5002
   -13.5002 -13.4927 -13.4927 -13.4927 -13.4926 -13.4926 -13.4926  -9.3198
    -9.1320  -9.1320  -9.0369  -8.8643  -8.8643  -8.8165  -8.8165  -8.8165
    -8.8157  -8.8157  -8.8157  -8.8113  -8.8113  -8.8113  -8.7342  -8.6993
    -8.6993  -8.6993  -8.5570  -8.5570  -8.5547  -8.5265  -8.5265  -5.4042
    -5.0975  -5.0975  -5.0975  -5.0821  -5.0821  -5.0821  -5.0819  -5.0819
    -5.0819  -5.0784  -5.0784  -5.0784  -5.0771  -5.0771  -5.0771  -5.0746
    -5.0746  -5.0746  -5.0729  -5.0729  -5.0721  -5.0721  -5.0693  -5.0678
    -4.9087  -4.9087  -4.6491  -4.3462  -4.3462  -3.8933  -3.2070  -3.2070
    -3.1830  -3.1830  -3.1830  -0.5613  -0.5613  -0.5613  -0.4960  -0.4749
    -0.4749  -0.4749  -0.3880  -0.3880  -0.3880   0.0017   0.0017   0.0017
     0.6548   0.6548   0.6548   0.8092   0.8092   0.8092   0.9825   0.9825
     0.9825   1.2940   1.2940   1.2940   1.3346   1.3346   1.3346   1.3777
     1.3777   1.3777   1.3849   1.3849   1.3849   1.4412   1.4412   1.4412
     1.4738   1.4738   1.4738   1.5016   1.5016   1.5016   1.5678   1.5708
     1.5708   1.6349   1.6349   1.6349   1.6848   1.6848   1.6848   1.6938
     1.6938   1.6938   1.7062   1.7062   1.8087   1.8087   1.8087   2.1585
     2.1585   2.1585   2.1822   2.1822   2.1999   2.1999   2.1999   2.2517
     2.6476   2.6476   2.9433   4.5673   4.5673   4.5673   4.5896   4.9316
     4.9316   4.9316   5.1295   5.1295   5.1295   5.9003   5.9003   5.9003
     6.1560   6.9905   7.1622   7.1622   7.5943   7.5943   7.5943   7.6286
     7.6286   7.6286   7.8537   7.8537   7.8723   8.0060   8.0060   8.0060
     8.0429   8.0430   8.0430   8.1648   8.1648   8.1648   8.2464

     occupation numbers 
     1.0000   1.0000   1.0000   1.0000   1.0000   1.0000   1.0000   1.0000
     1.0000   1.0000   1.0000   1.0000   1.0000   1.0000   1.0000   1.0000
     1.0000   1.0000   1.0000   1.0000   1.0000   1.0000   1.0000   1.0000
     1.0000   1.0000   1.0000   1.0000   1.0000   1.0000   1.0000   1.0000
     1.0000   1.0000   1.0000   1.0000   1.0000   1.0000   1.0000   1.0000
     1.0000   1.0000   1.0000   1.0000   1.0000   1.0000   1.0000   1.0000
     1.0000   1.0000   1.0000   1.0000   1.0000   1.0000   1.0000   1.0000
     1.0000   1.0000   1.0000   1.0000   1.0000   1.0000   1.0000   1.0000
     1.0000   1.0000   1.0000   1.0000   1.0000   1.0000   1.0000   1.0000
     1.0000   1.0000   1.0000   1.0000   1.0000   1.0000   1.0000   1.0000
     1.0000   1.0000   1.0000   1.0000   1.0000   1.0000   1.0000   1.0000
     1.0000   1.0000   1.0000   1.0000   1.0000   1.0000   1.0000   1.0000
     1.0000   1.0000   1.0000   1.0000   1.0000   1.0001   1.0004   1.0004
     1.0005   1.0005   1.0005   1.0473   1.0473   1.0473   1.0504   1.0513
     1.0513   1.0513   1.0554   1.0554   1.0554   1.0727   1.0727   1.0727
     1.0812   1.0812   1.0812   1.0755   1.0755   1.0755   1.0641   1.0641
     1.0641   1.0282   1.0282   1.0282   1.0220   1.0220   1.0220   1.0149
     1.0149   1.0149   1.0137   1.0137   1.0137   1.0037   1.0037   1.0037
     0.9976   0.9976   0.9976   0.9922   0.9922   0.9922   0.9787   0.9781
     0.9781   0.9639   0.9639   0.9639   0.9523   0.9523   0.9523   0.9501
     0.9501   0.9501   0.9471   0.9471   0.9210   0.9210   0.9210   0.8163
     0.8163   0.8163   0.8084   0.8084   0.8025   0.8025   0.8025   0.7849
     0.6415   0.6415   0.5303   0.0956   0.0956   0.0956   0.0926   0.0552
     0.0552   0.0552   0.0399   0.0399   0.0399   0.0094   0.0094   0.0094
     0.0055   0.0008   0.0005   0.0005   0.0001   0.0001   0.0001   0.0001
     0.0001   0.0001   0.0001   0.0001   0.0001   0.0000   0.0000   0.0000
     0.0000   0.0000   0.0000   0.0000   0.0000   0.0000   0.0000

          k = 0.0000 0.0000 0.2500 ( 57616 PWs)   bands (ev):

  -122.2775 -76.4516 -76.4516 -76.4516 -18.2957 -18.2955 -18.2954 -18.2954
   -18.2952 -18.2952 -18.2952 -18.2950 -13.5854 -13.5837 -13.5798 -13.5779
   -13.5771 -13.5759 -13.5691 -13.5674 -13.5546 -13.5537 -13.5520 -13.5460
   -13.5451 -13.5451 -13.5197 -13.5197 -13.5197 -13.5190 -13.5190 -13.5190
   -13.5189 -13.5189 -13.5189 -13.5188 -13.5188 -13.5188 -13.5001 -13.5001
   -13.5001 -13.4927 -13.4926 -13.4926 -13.4926 -13.4926 -13.4926  -9.3005
    -9.1625  -9.1107  -9.0430  -8.9556  -8.8944  -8.8199  -8.8164  -8.8164
    -8.8151  -8.8151  -8.8119  -8.8119  -8.7610  -8.7375  -8.7245  -8.6993
    -8.6993  -8.6542  -8.5826  -8.5732  -8.5566  -8.5425  -8.5291  -5.3389
    -5.0950  -5.0950  -5.0938  -5.0837  -5.0837  -5.0820  -5.0814  -5.0814
    -5.0808  -5.0784  -5.0784  -5.0778  -5.0778  -5.0772  -5.0765  -5.0760
    -5.0753  -5.0753  -5.0742  -5.0740  -5.0735  -5.0735  -5.0706  -5.0695
    -4.9584  -4.8385  -4.6529  -4.4452  -4.3276  -3.9815  -3.2145  -3.2075
    -3.1830  -3.1830  -3.1830  -0.6953  -0.5499  -0.5499  -0.4751  -0.4751
    -0.3982  -0.3982  -0.2970  -0.2329  -0.1308  -0.0077  -0.0077   0.3344
     0.6741   0.6944   0.6944   0.7887   0.8330   0.8452   0.8452   0.9269
     0.9269   1.0144   1.1096   1.1226   1.1226   1.2973   1.2973   1.3418
     1.3418   1.3602   1.3843   1.3892   1.4258   1.4258   1.4344   1.4692
     1.4930   1.4930   1.5173   1.5703   1.5928   1.6093   1.6093   1.6154
     1.6154   1.6177   1.6497   1.6497   1.6535   1.6745   1.6850   1.6876
     1.6876   1.7009   1.7172   1.7172   1.7876   1.7876   1.7932   1.9924
     2.0819   2.0819   2.1249   2.1249   2.1590   2.1906   2.1994   2.2382
     2.4604   2.5641   2.7689   4.3042   4.6294   4.6294   4.9236   4.9236
     5.1172   5.1172   5.2439   5.5154   5.7011   5.8888   5.8888   6.3062
     6.4204   7.1058   7.2453   7.2673   7.2867   7.4598   7.6432   7.6968
     7.6968   7.7124   7.7124   7.7627   7.7650   7.8838   7.9138   7.9894
     8.0130   8.0130   8.0290   8.0347   8.0647   8.1034   8.1048

     occupation numbers 
     1.0000   1.0000   1.0000   1.0000   1.0000   1.0000   1.0000   1.0000
     1.0000   1.0000   1.0000   1.0000   1.0000   1.0000   1.0000   1.0000
     1.0000   1.0000   1.0000   1.0000   1.0000   1.0000   1.0000   1.0000
     1.0000   1.0000   1.0000   1.0000   1.0000   1.0000   1.0000   1.0000
     1.0000   1.0000   1.0000   1.0000   1.0000   1.0000   1.0000   1.0000
     1.0000   1.0000   1.0000   1.0000   1.0000   1.0000   1.0000   1.0000
     1.0000   1.0000   1.0000   1.0000   1.0000   1.0000   1.0000   1.0000
     1.0000   1.0000   1.0000   1.0000   1.0000   1.0000   1.0000   1.0000
     1.0000   1.0000   1.0000   1.0000   1.0000   1.0000   1.0000   1.0000
     1.0000   1.0000   1.0000   1.0000   1.0000   1.0000   1.0000   1.0000
     1.0000   1.0000   1.0000   1.0000   1.0000   1.0000   1.0000   1.0000
     1.0000   1.0000   1.0000   1.0000   1.0000   1.0000   1.0000   1.0000
     1.0000   1.0000   1.0000   1.0000   1.0000   1.0001   1.0004   1.0004
     1.0005   1.0005   1.0005   1.0413   1.0479   1.0479   1.0513   1.0513
     1.0550   1.0550   1.0597   1.0627   1.0672   1.0724   1.0724   1.0822
     1.0807   1.0801   1.0801   1.0765   1.0743   1.0736   1.0736   1.0684
     1.0684   1.0614   1.0520   1.0506   1.0506   1.0277   1.0277   1.0208
     1.0208   1.0178   1.0138   1.0130   1.0065   1.0065   1.0050   0.9985
     0.9939   0.9939   0.9891   0.9782   0.9733   0.9697   0.9697   0.9683
     0.9683   0.9678   0.9605   0.9605   0.9597   0.9547   0.9523   0.9516
     0.9516   0.9484   0.9444   0.9444   0.9266   0.9266   0.9251   0.8688
     0.8411   0.8411   0.8273   0.8273   0.8161   0.8056   0.8027   0.7896
     0.7109   0.6727   0.5958   0.1367   0.0874   0.0874   0.0559   0.0559
     0.0407   0.0407   0.0328   0.0201   0.0141   0.0097   0.0097   0.0039
     0.0030   0.0006   0.0004   0.0004   0.0003   0.0002   0.0001   0.0001
     0.0001   0.0001   0.0001   0.0001   0.0001   0.0001   0.0001   0.0000
     0.0000   0.0000   0.0000   0.0000   0.0000   0.0000   0.0000

          k = 0.0000 0.0000-0.5000 ( 57624 PWs)   bands (ev):

  -122.2775 -76.4516 -76.4516 -76.4516 -18.2956 -18.2956 -18.2953 -18.2953
   -18.2953 -18.2953 -18.2951 -18.2951 -13.5853 -13.5811 -13.5788 -13.5781
   -13.5767 -13.5760 -13.5705 -13.5670 -13.5558 -13.5541 -13.5527 -13.5460
   -13.5453 -13.5453 -13.5197 -13.5196 -13.5196 -13.5190 -13.5190 -13.5190
   -13.5189 -13.5189 -13.5188 -13.5188 -13.5188 -13.5188 -13.5001 -13.5001
   -13.5001 -13.4926 -13.4926 -13.4926 -13.4926 -13.4926 -13.4926  -9.2634
    -9.2143  -9.0548  -9.0433  -9.0358  -8.9242  -8.8202  -8.8164  -8.8164
    -8.8140  -8.8140  -8.8131  -8.8131  -8.7538  -8.6993  -8.6993  -8.6553
    -8.6540  -8.6361  -8.6280  -8.5995  -8.5781  -8.5566  -8.5305  -5.2243
    -5.0919  -5.0892  -5.0892  -5.0892  -5.0892  -5.0849  -5.0847  -5.0797
    -5.0797  -5.0796  -5.0796  -5.0789  -5.0788  -5.0775  -5.0771  -5.0771
    -5.0769  -5.0769  -5.0757  -5.0750  -5.0750  -5.0738  -5.0724  -5.0724
    -5.0514  -4.6653  -4.6465  -4.6447  -4.2819  -4.0945  -3.2220  -3.2080
    -3.1830  -3.1830  -3.1830  -0.7980  -0.5350  -0.5350  -0.4788  -0.4788
    -0.4081  -0.4081  -0.0172  -0.0172   0.2824   0.2986   0.3646   0.3698
     0.4702   0.4826   0.7061   0.7554   0.7937   0.8003   0.8003   0.8014
     0.8014   0.9394   0.9394   0.9667   0.9667   0.9802   1.2736   1.2736
     1.3223   1.3223   1.3935   1.3941   1.4249   1.4640   1.5229   1.5229
     1.5275   1.5275   1.5512   1.5704   1.5731   1.5731   1.5767   1.5777
     1.5777   1.6163   1.6522   1.6557   1.6736   1.6975   1.7011   1.7011
     1.7626   1.7626   1.7844   1.8263   1.8756   1.8756   1.8784   1.8784
     1.9363   1.9363   1.9473   1.9473   2.1595   2.1989   2.2063   2.2534
     2.3339   2.4582   2.7060   4.1496   4.7165   4.7165   4.8819   4.8819
     5.1144   5.1144   5.8758   5.8758   6.3806   6.4055   6.6655   6.6831
     6.7035   6.7250   6.8051   6.8734   7.1189   7.4182   7.4422   7.4683
     7.4960   7.6176   7.6258   7.7653   7.8211   7.9098   7.9098   7.9231
     7.9231   7.9929   7.9929   8.0022   8.0022   8.0540   8.0540

     occupation numbers 
     1.0000   1.0000   1.0000   1.0000   1.0000   1.0000   1.0000   1.0000
     1.0000   1.0000   1.0000   1.0000   1.0000   1.0000   1.0000   1.0000
     1.0000   1.0000   1.0000   1.0000   1.0000   1.0000   1.0000   1.0000
     1.0000   1.0000   1.0000   1.0000   1.0000   1.0000   1.0000   1.0000
     1.0000   1.0000   1.0000   1.0000   1.0000   1.0000   1.0000   1.0000
     1.0000   1.0000   1.0000   1.0000   1.0000   1.0000   1.0000   1.0000
     1.0000   1.0000   1.0000   1.0000   1.0000   1.0000   1.0000   1.0000
     1.0000   1.0000   1.0000   1.0000   1.0000   1.0000   1.0000   1.0000
     1.0000   1.0000   1.0000   1.0000   1.0000   1.0000   1.0000   1.0000
     1.0000   1.0000   1.0000   1.0000   1.0000   1.0000   1.0000   1.0000
     1.0000   1.0000   1.0000   1.0000   1.0000   1.0000   1.0000   1.0000
     1.0000   1.0000   1.0000   1.0000   1.0000   1.0000   1.0000   1.0000
     1.0000   1.0000   1.0000   1.0000   1.0000   1.0000   1.0004   1.0004
     1.0005   1.0005   1.0005   1.0369   1.0485   1.0485   1.0512   1.0512
     1.0545   1.0545   1.0720   1.0720   1.0813   1.0816   1.0826   1.0827
     1.0833   1.0833   1.0797   1.0779   1.0763   1.0760   1.0760   1.0759
     1.0759   1.0675   1.0675   1.0654   1.0654   1.0643   1.0312   1.0312
     1.0239   1.0239   1.0122   1.0121   1.0067   0.9995   0.9880   0.9880
     0.9871   0.9871   0.9822   0.9781   0.9776   0.9776   0.9768   0.9766
     0.9766   0.9681   0.9600   0.9591   0.9550   0.9492   0.9484   0.9484
     0.9331   0.9331   0.9274   0.9163   0.9028   0.9028   0.9020   0.9020
     0.8855   0.8855   0.8822   0.8822   0.8160   0.8029   0.8004   0.7844
     0.7563   0.7117   0.6195   0.1662   0.0769   0.0769   0.0597   0.0597
     0.0409   0.0409   0.0099   0.0099   0.0033   0.0031   0.0017   0.0016
     0.0015   0.0015   0.0012   0.0010   0.0005   0.0002   0.0002   0.0002
     0.0002   0.0001   0.0001   0.0001   0.0001   0.0001   0.0001   0.0001
     0.0001   0.0000   0.0000   0.0000   0.0000   0.0000   0.0000

          k = 0.0000 0.2500 0.2500 ( 57594 PWs)   bands (ev):

  -122.2775 -76.4516 -76.4516 -76.4516 -18.2957 -18.2955 -18.2955 -18.2954
   -18.2953 -18.2952 -18.2952 -18.2950 -13.5844 -13.5827 -13.5790 -13.5776
   -13.5765 -13.5758 -13.5699 -13.5679 -13.5551 -13.5542 -13.5529 -13.5460
   -13.5454 -13.5454 -13.5196 -13.5196 -13.5196 -13.5190 -13.5190 -13.5190
   -13.5189 -13.5189 -13.5189 -13.5188 -13.5188 -13.5188 -13.5001 -13.5001
   -13.5001 -13.4926 -13.4926 -13.4926 -13.4926 -13.4926 -13.4926  -9.2810
    -9.1559  -9.1262  -9.0517  -8.9896  -8.9313  -8.8807  -8.8162  -8.8148
    -8.8124  -8.7780  -8.7776  -8.7649  -8.7449  -8.7385  -8.7117  -8.6993
    -8.6750  -8.6403  -8.5964  -8.5820  -8.5739  -8.5497  -8.5410  -5.2737
    -5.0943  -5.0923  -5.0892  -5.0846  -5.0841  -5.0831  -5.0826  -5.0818
    -5.0794  -5.0789  -5.0789  -5.0788  -5.0788  -5.0768  -5.0765  -5.0759
    -5.0756  -5.0755  -5.0751  -5.0748  -5.0739  -5.0732  -5.0716  -5.0700
    -4.9302  -4.8445  -4.6591  -4.4775  -4.3725  -4.0724  -3.2181  -3.2114
    -3.1830  -3.1830  -3.1830  -0.8211  -0.5368  -0.4734  -0.4124  -0.3548
    -0.2564  -0.2558  -0.1987  -0.1733  -0.1319  -0.0164   0.1682   0.4360
     0.7079   0.7125   0.7159   0.7988   0.8067   0.8302   0.8551   0.8690
     0.8986   0.9259   1.0235   1.0342   1.1046   1.1358   1.2069   1.2293
     1.2348   1.3235   1.3260   1.3936   1.4156   1.4291   1.4415   1.4811
     1.4954   1.4971   1.5073   1.5537   1.5580   1.5939   1.6117   1.6286
     1.6365   1.6476   1.6532   1.6568   1.6577   1.6658   1.7105   1.7207
     1.7330   1.7435   1.7570   1.7610   1.7641   1.7785   1.8254   1.9987
     2.0050   2.0481   2.0557   2.0935   2.0970   2.1198   2.1460   2.2203
     2.2988   2.4590   2.5496   4.0535   4.6909   4.9334   5.0869   5.2207
     5.3270   5.4917   5.5257   5.6638   5.6990   5.8757   6.2881   6.4426
     6.5126   7.2013   7.3204   7.3305   7.3527   7.3545   7.4775   7.4811
     7.6756   7.7029   7.7324   7.7791   7.7831   7.8009   7.8406   7.8436
     7.8542   7.8636   7.8712   7.9613   7.9974   8.0070   8.0875

     occupation numbers 
     1.0000   1.0000   1.0000   1.0000   1.0000   1.0000   1.0000   1.0000
     1.0000   1.0000   1.0000   1.0000   1.0000   1.0000   1.0000   1.0000
     1.0000   1.0000   1.0000   1.0000   1.0000   1.0000   1.0000   1.0000
     1.0000   1.0000   1.0000   1.0000   1.0000   1.0000   1.0000   1.0000
     1.0000   1.0000   1.0000   1.0000   1.0000   1.0000   1.0000   1.0000
     1.0000   1.0000   1.0000   1.0000   1.0000   1.0000   1.0000   1.0000
     1.0000   1.0000   1.0000   1.0000   1.0000   1.0000   1.0000   1.0000
     1.0000   1.0000   1.0000   1.0000   1.0000   1.0000   1.0000   1.0000
     1.0000   1.0000   1.0000   1.0000   1.0000   1.0000   1.0000   1.0000
     1.0000   1.0000   1.0000   1.0000   1.0000   1.0000   1.0000   1.0000
     1.0000   1.0000   1.0000   1.0000   1.0000   1.0000   1.0000   1.0000
     1.0000   1.0000   1.0000   1.0000   1.0000   1.0000   1.0000   1.0000
     1.0000   1.0000   1.0000   1.0000   1.0000   1.0000   1.0004   1.0004
     1.0005   1.0005   1.0005   1.0359   1.0485   1.0514   1.0543   1.0570
     1.0616   1.0616   1.0642   1.0654   1.0672   1.0720   1.0784   1.0832
     1.0797   1.0795   1.0794   1.0760   1.0756   1.0744   1.0730   1.0722
     1.0703   1.0685   1.0606   1.0596   1.0525   1.0491   1.0404   1.0374
     1.0367   1.0237   1.0233   1.0122   1.0083   1.0059   1.0037   0.9962
     0.9935   0.9931   0.9911   0.9817   0.9808   0.9731   0.9692   0.9654
     0.9636   0.9610   0.9597   0.9589   0.9587   0.9568   0.9461   0.9436
     0.9405   0.9379   0.9345   0.9335   0.9327   0.9290   0.9166   0.8669
     0.8650   0.8518   0.8494   0.8374   0.8363   0.8289   0.8204   0.7956
     0.7686   0.7114   0.6780   0.1867   0.0799   0.0550   0.0428   0.0341
     0.0283   0.0210   0.0197   0.0151   0.0141   0.0099   0.0041   0.0029
     0.0024   0.0004   0.0003   0.0003   0.0003   0.0003   0.0002   0.0002
     0.0001   0.0001   0.0001   0.0001   0.0001   0.0001   0.0001   0.0001
     0.0001   0.0001   0.0001   0.0000   0.0000   0.0000   0.0000

          k = 0.0000 0.2500-0.5000 ( 57722 PWs)   bands (ev):

  -122.2775 -76.4516 -76.4516 -76.4516 -18.2956 -18.2956 -18.2954 -18.2954
   -18.2953 -18.2953 -18.2951 -18.2951 -13.5841 -13.5802 -13.5781 -13.5775
   -13.5763 -13.5758 -13.5716 -13.5678 -13.5561 -13.5545 -13.5537 -13.5461
   -13.5456 -13.5455 -13.5196 -13.5196 -13.5196 -13.5190 -13.5190 -13.5190
   -13.5190 -13.5189 -13.5189 -13.5189 -13.5189 -13.5189 -13.5001 -13.5001
   -13.5001 -13.4927 -13.4926 -13.4926 -13.4926 -13.4926 -13.4926  -9.2424
    -9.1992  -9.0995  -9.0615  -9.0270  -8.9539  -8.9011  -8.8160  -8.8139
    -8.8134  -8.7884  -8.7624  -8.7519  -8.7374  -8.6994  -8.6708  -8.6594
    -8.6588  -8.6404  -8.6330  -8.5982  -8.5849  -8.5740  -8.5456  -5.1573
    -5.0916  -5.0895  -5.0894  -5.0833  -5.0819  -5.0818  -5.0817  -5.0816
    -5.0810  -5.0810  -5.0808  -5.0808  -5.0784  -5.0777  -5.0776  -5.0775
    -5.0762  -5.0761  -5.0750  -5.0750  -5.0733  -5.0729  -5.0727  -5.0726
    -5.0137  -4.7526  -4.6609  -4.5882  -4.3413  -4.1967  -3.2245  -3.2127
    -3.1830  -3.1830  -3.1830  -0.9068  -0.5181  -0.4754  -0.4284  -0.3005
    -0.2430  -0.1743  -0.0250   0.1813   0.2966   0.3144   0.3624   0.3634
     0.4477   0.4660   0.7339   0.7633   0.7802   0.7806   0.8030   0.8052
     0.8085   0.9226   0.9415   0.9468   0.9627   0.9644   1.1134   1.1512
     1.2087   1.2456   1.3511   1.3762   1.3767   1.4288   1.4344   1.4565
     1.4733   1.4741   1.5256   1.5338   1.5696   1.5786   1.5860   1.6298
     1.6385   1.6487   1.6493   1.6678   1.6681   1.7247   1.7270   1.7564
     1.7616   1.7857   1.8304   1.8526   1.8666   1.8729   1.8973   1.9078
     1.9422   1.9432   1.9505   1.9559   2.0213   2.0967   2.1343   2.1665
     2.2354   2.3519   2.4679   3.8917   4.7816   4.9081   5.0629   5.3300
     5.4760   5.6701   5.8614   6.3237   6.4329   6.4361   6.6433   6.6662
     6.7926   6.8015   6.8389   6.8486   7.0885   7.4614   7.4813   7.5033
     7.5503   7.5575   7.5590   7.5805   7.6296   7.6386   7.6972   7.7694
     7.7713   7.8470   7.9054   7.9159   8.0101   8.0206   8.0368

     occupation numbers 
     1.0000   1.0000   1.0000   1.0000   1.0000   1.0000   1.0000   1.0000
     1.0000   1.0000   1.0000   1.0000   1.0000   1.0000   1.0000   1.0000
     1.0000   1.0000   1.0000   1.0000   1.0000   1.0000   1.0000   1.0000
     1.0000   1.0000   1.0000   1.0000   1.0000   1.0000   1.0000   1.0000
     1.0000   1.0000   1.0000   1.0000   1.0000   1.0000   1.0000   1.0000
     1.0000   1.0000   1.0000   1.0000   1.0000   1.0000   1.0000   1.0000
     1.0000   1.0000   1.0000   1.0000   1.0000   1.0000   1.0000   1.0000
     1.0000   1.0000   1.0000   1.0000   1.0000   1.0000   1.0000   1.0000
     1.0000   1.0000   1.0000   1.0000   1.0000   1.0000   1.0000   1.0000
     1.0000   1.0000   1.0000   1.0000   1.0000   1.0000   1.0000   1.0000
     1.0000   1.0000   1.0000   1.0000   1.0000   1.0000   1.0000   1.0000
     1.0000   1.0000   1.0000   1.0000   1.0000   1.0000   1.0000   1.0000
     1.0000   1.0000   1.0000   1.0000   1.0000   1.0000   1.0004   1.0004
     1.0005   1.0005   1.0005   1.0325   1.0493   1.0513   1.0535   1.0595
     1.0622   1.0653   1.0717   1.0788   1.0816   1.0819   1.0826   1.0826
     1.0833   1.0833   1.0788   1.0776   1.0769   1.0769   1.0758   1.0757
     1.0755   1.0687   1.0673   1.0669   1.0657   1.0656   1.0516   1.0473
     1.0402   1.0352   1.0193   1.0152   1.0151   1.0060   1.0050   1.0009
     0.9977   0.9976   0.9874   0.9858   0.9783   0.9764   0.9748   0.9651
     0.9631   0.9608   0.9606   0.9563   0.9562   0.9426   0.9420   0.9346
     0.9333   0.9271   0.9152   0.9092   0.9053   0.9035   0.8967   0.8937
     0.8838   0.8835   0.8813   0.8797   0.8600   0.8364   0.8242   0.8137
     0.7905   0.7500   0.7081   0.2248   0.0697   0.0573   0.0446   0.0282
     0.0216   0.0149   0.0102   0.0038   0.0029   0.0029   0.0018   0.0017
     0.0012   0.0012   0.0011   0.0011   0.0006   0.0002   0.0002   0.0002
     0.0002   0.0002   0.0002   0.0001   0.0001   0.0001   0.0001   0.0001
     0.0001   0.0001   0.0001   0.0001   0.0000   0.0000   0.0000

          k = 0.0000-0.5000-0.5000 ( 57708 PWs)   bands (ev):

  -122.2775 -76.4516 -76.4516 -76.4516 -18.2955 -18.2955 -18.2955 -18.2955
   -18.2952 -18.2952 -18.2952 -18.2952 -13.5832 -13.5777 -13.5777 -13.5760
   -13.5754 -13.5754 -13.5753 -13.5681 -13.5568 -13.5549 -13.5549 -13.5463
   -13.5457 -13.5457 -13.5197 -13.5197 -13.5195 -13.5190 -13.5190 -13.5190
   -13.5190 -13.5189 -13.5189 -13.5189 -13.5189 -13.5188 -13.5001 -13.5001
   -13.5001 -13.4926 -13.4926 -13.4926 -13.4926 -13.4926 -13.4926  -9.1890
    -9.1763  -9.1763  -9.0926  -8.9878  -8.9651  -8.9651  -8.8155  -8.8139
    -8.8139  -8.8036  -8.6994  -8.6913  -8.6890  -8.6890  -8.6884  -8.6864
    -8.6445  -8.6440  -8.6440  -8.6176  -8.5812  -8.5812  -8.5772  -5.0895
    -5.0887  -5.0887  -5.0878  -5.0877  -5.0857  -5.0857  -5.0834  -5.0815
    -5.0815  -5.0788  -5.0788  -5.0775  -5.0775  -5.0774  -5.0773  -5.0759
    -5.0759  -5.0748  -5.0748  -5.0740  -5.0738  -5.0723  -5.0713  -4.9702
    -4.9506  -4.9506  -4.6938  -4.4213  -4.3983  -4.3983  -3.2288  -3.2157
    -3.1830  -3.1830  -3.1830  -0.9855  -0.4780  -0.4718  -0.4718  -0.0329
     0.1728   0.2139   0.2171   0.2171   0.3323   0.3744   0.3744   0.4214
     0.4533   0.4747   0.4747   0.4903   0.5343   0.7768   0.8051   0.8051
     0.8237   0.8910   0.8985   0.8985   0.9627   0.9808   1.0087   1.0087
     1.2137   1.2161   1.2161   1.2318   1.3208   1.3298   1.3298   1.3547
     1.4880   1.5086   1.5086   1.5300   1.5827   1.6141   1.6141   1.6356
     1.6521   1.6627   1.6627   1.6631   1.7330   1.7798   1.8046   1.8046
     1.8292   1.8292   1.8416   1.8716   1.8747   1.8747   1.8748   1.9103
     1.9303   1.9404   1.9533   1.9533   1.9684   1.9983   1.9997   1.9997
     2.2518   2.3007   2.3007   3.7120   4.9226   4.9353   4.9353   5.8460
     6.4585   6.4706   6.4706   6.5018   6.5062   6.6164   6.6289   6.6289
     6.7926   6.7957   6.7957   6.8189   6.8674   7.0978   7.1359   7.1359
     7.1457   7.2324   7.5760   7.5760   7.5871   7.6076   7.7575   7.7575
     7.7895   7.7982   7.8731   7.8731   7.9619   7.9856   7.9860

     occupation numbers 
     1.0000   1.0000   1.0000   1.0000   1.0000   1.0000   1.0000   1.0000
     1.0000   1.0000   1.0000   1.0000   1.0000   1.0000   1.0000   1.0000
     1.0000   1.0000   1.0000   1.0000   1.0000   1.0000   1.0000   1.0000
     1.0000   1.0000   1.0000   1.0000   1.0000   1.0000   1.0000   1.0000
     1.0000   1.0000   1.0000   1.0000   1.0000   1.0000   1.0000   1.0000
     1.0000   1.0000   1.0000   1.0000   1.0000   1.0000   1.0000   1.0000
     1.0000   1.0000   1.0000   1.0000   1.0000   1.0000   1.0000   1.0000
     1.0000   1.0000   1.0000   1.0000   1.0000   1.0000   1.0000   1.0000
     1.0000   1.0000   1.0000   1.0000   1.0000   1.0000   1.0000   1.0000
     1.0000   1.0000   1.0000   1.0000   1.0000   1.0000   1.0000   1.0000
     1.0000   1.0000   1.0000   1.0000   1.0000   1.0000   1.0000   1.0000
     1.0000   1.0000   1.0000   1.0000   1.0000   1.0000   1.0000   1.0000
     1.0000   1.0000   1.0000   1.0000   1.0000   1.0000   1.0004   1.0004
     1.0005   1.0005   1.0005   1.0295   1.0512   1.0515   1.0515   1.0714
     1.0786   1.0797   1.0798   1.0798   1.0822   1.0827   1.0827   1.0831
     1.0833   1.0833   1.0833   1.0833   1.0831   1.0770   1.0757   1.0757
     1.0748   1.0708   1.0703   1.0703   1.0657   1.0643   1.0619   1.0619
     1.0395   1.0392   1.0392   1.0371   1.0241   1.0227   1.0227   1.0187
     0.9949   0.9909   0.9909   0.9866   0.9755   0.9686   0.9686   0.9638
     0.9600   0.9575   0.9575   0.9574   0.9405   0.9286   0.9221   0.9221
     0.9155   0.9155   0.9122   0.9039   0.9030   0.9030   0.9030   0.8930
     0.8872   0.8843   0.8805   0.8805   0.8760   0.8670   0.8666   0.8666
     0.7849   0.7680   0.7680   0.2726   0.0560   0.0549   0.0549   0.0105
     0.0028   0.0027   0.0027   0.0025   0.0025   0.0019   0.0019   0.0019
     0.0012   0.0012   0.0012   0.0012   0.0010   0.0006   0.0005   0.0005
     0.0005   0.0004   0.0002   0.0002   0.0001   0.0001   0.0001   0.0001
     0.0001   0.0001   0.0001   0.0001   0.0000   0.0000   0.0000

          k = 0.2500 0.2500 0.2500 ( 57718 PWs)   bands (ev):

  -122.2775 -76.4516 -76.4516 -76.4516 -18.2956 -18.2954 -18.2954 -18.2954
   -18.2952 -18.2952 -18.2952 -18.2951 -13.5825 -13.5825 -13.5782 -13.5766
   -13.5766 -13.5757 -13.5697 -13.5697 -13.5551 -13.5551 -13.5537 -13.5461
   -13.5456 -13.5456 -13.5196 -13.5196 -13.5196 -13.5190 -13.5190 -13.5190
   -13.5189 -13.5189 -13.5189 -13.5189 -13.5189 -13.5188 -13.5001 -13.5001
   -13.5001 -13.4926 -13.4926 -13.4926 -13.4926 -13.4926 -13.4926  -9.2616
    -9.1360  -9.1360  -9.0754  -8.9930  -8.9930  -8.9248  -8.7945  -8.7789
    -8.7776  -8.7776  -8.7647  -8.7647  -8.7446  -8.7146  -8.7146  -8.6745
    -8.6745  -8.6326  -8.5967  -8.5967  -8.5944  -8.5557  -8.5557  -5.2093
    -5.0924  -5.0924  -5.0840  -5.0840  -5.0837  -5.0837  -5.0827  -5.0827
    -5.0805  -5.0800  -5.0793  -5.0793  -5.0791  -5.0791  -5.0778  -5.0778
    -5.0754  -5.0754  -5.0749  -5.0742  -5.0729  -5.0729  -5.0714  -5.0691
    -4.8618  -4.8618  -4.6793  -4.4708  -4.4708  -4.1640  -3.2184  -3.2184
    -3.1830  -3.1830  -3.1830  -0.9216  -0.3440  -0.3440  -0.2799  -0.2231
    -0.2231  -0.1911  -0.1730  -0.1730  -0.1435   0.1572   0.1572   0.5093
     0.7225   0.7283   0.7283   0.7965   0.7980   0.7980   0.8426   0.8695
     0.8695   0.8855   0.9651   0.9651   1.0968   1.0968   1.1672   1.2214
     1.2214   1.2392   1.2531   1.2531   1.3192   1.3560   1.3560   1.4635
     1.4635   1.4650   1.5021   1.5021   1.5815   1.5920   1.5920   1.6296
     1.6380   1.6380   1.7029   1.7260   1.7288   1.7352   1.7377   1.7377
     1.7535   1.7535   1.7809   1.7809   1.7953   1.8250   1.8250   2.0016
     2.0016   2.0106   2.0408   2.0408   2.0587   2.0902   2.0902   2.1067
     2.2427   2.2427   2.2758   3.8044   5.2677   5.2677   5.4062   5.4753
     5.5278   5.5278   5.6406   5.6406   5.6725   6.2714   6.2714   6.5621
     6.5922   7.2690   7.3299   7.3299   7.3468   7.4193   7.4193   7.4764
     7.4764   7.5067   7.7056   7.7285   7.7285   7.7332   7.7562   7.7562
     7.7775   7.8279   7.8279   7.8886   7.9071   7.9071   8.0131

     occupation numbers 
     1.0000   1.0000   1.0000   1.0000   1.0000   1.0000   1.0000   1.0000
     1.0000   1.0000   1.0000   1.0000   1.0000   1.0000   1.0000   1.0000
     1.0000   1.0000   1.0000   1.0000   1.0000   1.0000   1.0000   1.0000
     1.0000   1.0000   1.0000   1.0000   1.0000   1.0000   1.0000   1.0000
     1.0000   1.0000   1.0000   1.0000   1.0000   1.0000   1.0000   1.0000
     1.0000   1.0000   1.0000   1.0000   1.0000   1.0000   1.0000   1.0000
     1.0000   1.0000   1.0000   1.0000   1.0000   1.0000   1.0000   1.0000
     1.0000   1.0000   1.0000   1.0000   1.0000   1.0000   1.0000   1.0000
     1.0000   1.0000   1.0000   1.0000   1.0000   1.0000   1.0000   1.0000
     1.0000   1.0000   1.0000   1.0000   1.0000   1.0000   1.0000   1.0000
     1.0000   1.0000   1.0000   1.0000   1.0000   1.0000   1.0000   1.0000
     1.0000   1.0000   1.0000   1.0000   1.0000   1.0000   1.0000   1.0000
     1.0000   1.0000   1.0000   1.0000   1.0000   1.0000   1.0004   1.0004
     1.0005   1.0005   1.0005   1.0319   1.0575   1.0575   1.0605   1.0631
     1.0631   1.0646   1.0654   1.0654   1.0667   1.0781   1.0781   1.0832
     1.0792   1.0790   1.0790   1.0761   1.0761   1.0761   1.0737   1.0722
     1.0722   1.0712   1.0655   1.0655   1.0534   1.0534   1.0454   1.0385
     1.0385   1.0361   1.0341   1.0341   1.0244   1.0185   1.0185   0.9996
     0.9996   0.9993   0.9921   0.9921   0.9758   0.9735   0.9735   0.9651
     0.9632   0.9632   0.9479   0.9423   0.9416   0.9400   0.9394   0.9394
     0.9354   0.9354   0.9283   0.9283   0.9246   0.9167   0.9167   0.8661
     0.8661   0.8633   0.8540   0.8540   0.8484   0.8385   0.8385   0.8332
     0.7880   0.7880   0.7766   0.2473   0.0315   0.0315   0.0246   0.0216
     0.0196   0.0196   0.0158   0.0158   0.0149   0.0043   0.0043   0.0022
     0.0020   0.0004   0.0003   0.0003   0.0003   0.0002   0.0002   0.0002
     0.0002   0.0002   0.0001   0.0001   0.0001   0.0001   0.0001   0.0001
[...]
     atom   38 type  2   force =     0.00000000    0.00000000   -0.15428957
     atom   39 type  2   force =     0.00000000   -0.15428957   -0.00000000
     atom   40 type  2   force =     0.00000000    0.15428957   -0.00000000
     The local contribution  to forces
     atom    1 type  1   force =     0.75351610    0.75351610    0.75351610
     atom    2 type  1   force =    -0.75351610    0.75351610   -0.75351610
     atom    3 type  1   force =     0.75351610   -0.75351610   -0.75351610
     atom    4 type  1   force =    -0.75351610   -0.75351610    0.75351610
     atom    5 type  1   force =     0.75351610    0.75351610   -0.75351610
     atom    6 type  1   force =     0.75351610   -0.75351610    0.75351610
     atom    7 type  1   force =    -0.75351610    0.75351610    0.75351610
     atom    8 type  1   force =    -0.75351610   -0.75351610   -0.75351610
     atom    9 type  4   force =     0.00000000    0.00000000    0.00000000
     atom   10 type  3   force =     0.00000000    0.00000000    0.00000000
     atom   11 type  3   force =     0.00000000    0.00000000    0.00000000
     atom   12 type  3   force =     0.00000000    0.00000000   -0.00000000
     atom   13 type  3   force =     0.00000000    0.00000000   -0.00000000
     atom   14 type  3   force =     0.00000000    0.00000000    0.00000000
     atom   15 type  3   force =     0.00000000    0.00000000   -0.00000000
     atom   16 type  3   force =     0.00000000    0.00000000   -0.00000000
     atom   17 type  2   force =     0.00000000   -5.40818603    0.00000000
     atom   18 type  2   force =     0.00000000    5.40818603    0.00000000
     atom   19 type  2   force =    -5.40818603    0.00000000   -0.00000000
     atom   20 type  2   force =     5.40818603   -0.00000000   -0.00000000
     atom   21 type  2   force =     0.00000000    0.00000000    5.40818603
     atom   22 type  2   force =     0.00000000    0.00000000   -5.40818603
     atom   23 type  2   force =     0.00000000    0.00000000    0.25032628
     atom   24 type  2   force =     0.00000000    0.00000000   -0.25032628
     atom   25 type  2   force =     0.25032628    0.00000000   -0.00000000
     atom   26 type  2   force =    -0.25032628    0.00000000    0.00000000
     atom   27 type  2   force =     0.00000000    0.25032628   -0.00000000
     atom   28 type  2   force =     0.00000000   -0.25032628   -0.00000000
     atom   29 type  2   force =    -0.00000000    0.00000000   -0.25032628
     atom   30 type  2   force =    -0.00000000    0.00000000    0.25032628
     atom   31 type  2   force =     0.00000000    0.25032628   -0.00000000
     atom   32 type  2   force =     0.00000000   -0.25032628   -0.00000000
     atom   33 type  2   force =     0.25032628   -0.00000000   -0.00000000
     atom   34 type  2   force =    -0.25032628   -0.00000000   -0.00000000
     atom   35 type  2   force =     0.15400428    0.00000000   -0.00000000
     atom   36 type  2   force =    -0.15400428    0.00000000   -0.00000000
     atom   37 type  2   force =     0.00000000    0.00000000   -0.15400428
     atom   38 type  2   force =     0.00000000    0.00000000    0.15400428
     atom   39 type  2   force =     0.00000000    0.15400428   -0.00000000
     atom   40 type  2   force =     0.00000000   -0.15400428   -0.00000000
     The core correction contribution to forces
     atom    1 type  1   force =     0.00009883    0.00009883    0.00009883
     atom    2 type  1   force =    -0.00009883    0.00009883   -0.00009883
     atom    3 type  1   force =     0.00009883   -0.00009883   -0.00009883
     atom    4 type  1   force =    -0.00009883   -0.00009883    0.00009883
     atom    5 type  1   force =     0.00009883    0.00009883   -0.00009883
     atom    6 type  1   force =     0.00009883   -0.00009883    0.00009883
     atom    7 type  1   force =    -0.00009883    0.00009883    0.00009883
     atom    8 type  1   force =    -0.00009883   -0.00009883   -0.00009883
     atom    9 type  4   force =     0.00000000    0.00000000    0.00000000
     atom   10 type  3   force =     0.00000000    0.00000000    0.00000000
     atom   11 type  3   force =     0.00000000    0.00000000    0.00000000
     atom   12 type  3   force =     0.00000000    0.00000000   -0.00000000
     atom   13 type  3   force =     0.00000000    0.00000000   -0.00000000
     atom   14 type  3   force =     0.00000000    0.00000000    0.00000000
     atom   15 type  3   force =     0.00000000    0.00000000   -0.00000000
     atom   16 type  3   force =     0.00000000    0.00000000   -0.00000000
     atom   17 type  2   force =     0.00000000    0.00175784    0.00000000
     atom   18 type  2   force =     0.00000000   -0.00175784    0.00000000
     atom   19 type  2   force =     0.00175784    0.00000000    0.00000000
     atom   20 type  2   force =    -0.00175784    0.00000000    0.00000000
     atom   21 type  2   force =     0.00000000    0.00000000   -0.00175784
     atom   22 type  2   force =     0.00000000    0.00000000    0.00175784
     atom   23 type  2   force =    -0.00000000    0.00000000   -0.00009510
     atom   24 type  2   force =    -0.00000000    0.00000000    0.00009510
     atom   25 type  2   force =    -0.00009510   -0.00000000    0.00000000
     atom   26 type  2   force =     0.00009510   -0.00000000    0.00000000
     atom   27 type  2   force =     0.00000000   -0.00009510   -0.00000000
     atom   28 type  2   force =     0.00000000    0.00009510   -0.00000000
     atom   29 type  2   force =     0.00000000   -0.00000000    0.00009510
     atom   30 type  2   force =     0.00000000   -0.00000000   -0.00009510
     atom   31 type  2   force =    -0.00000000   -0.00009510    0.00000000
     atom   32 type  2   force =    -0.00000000    0.00009510    0.00000000
     atom   33 type  2   force =    -0.00009510    0.00000000   -0.00000000
     atom   34 type  2   force =     0.00009510    0.00000000   -0.00000000
     atom   35 type  2   force =    -0.00002868   -0.00000000   -0.00000000
     atom   36 type  2   force =     0.00002868   -0.00000000   -0.00000000
     atom   37 type  2   force =    -0.00000000   -0.00000000    0.00002868
     atom   38 type  2   force =    -0.00000000   -0.00000000   -0.00002868
     atom   39 type  2   force =    -0.00000000   -0.00002868   -0.00000000
     atom   40 type  2   force =    -0.00000000    0.00002868   -0.00000000
     The Hubbard contrib.    to forces
     atom    1 type  1   force =     0.00000000    0.00000000    0.00000000
     atom    2 type  1   force =     0.00000000    0.00000000    0.00000000
     atom    3 type  1   force =     0.00000000    0.00000000    0.00000000
     atom    4 type  1   force =     0.00000000    0.00000000    0.00000000
     atom    5 type  1   force =     0.00000000    0.00000000    0.00000000
     atom    6 type  1   force =     0.00000000    0.00000000    0.00000000
     atom    7 type  1   force =     0.00000000    0.00000000    0.00000000
     atom    8 type  1   force =     0.00000000    0.00000000    0.00000000
     atom    9 type  4   force =     0.00000000    0.00000000    0.00000000
     atom   10 type  3   force =     0.00000000    0.00000000    0.00000000
     atom   11 type  3   force =     0.00000000    0.00000000    0.00000000
     atom   12 type  3   force =     0.00000000    0.00000000    0.00000000
     atom   13 type  3   force =     0.00000000    0.00000000    0.00000000
     atom   14 type  3   force =     0.00000000    0.00000000    0.00000000
     atom   15 type  3   force =     0.00000000    0.00000000    0.00000000
     atom   16 type  3   force =     0.00000000    0.00000000    0.00000000
     atom   17 type  2   force =     0.00000000    0.00000000    0.00000000
     atom   18 type  2   force =     0.00000000    0.00000000    0.00000000
     atom   19 type  2   force =     0.00000000    0.00000000    0.00000000
     atom   20 type  2   force =     0.00000000    0.00000000    0.00000000
     atom   21 type  2   force =     0.00000000    0.00000000    0.00000000
     atom   22 type  2   force =     0.00000000    0.00000000    0.00000000
     atom   23 type  2   force =     0.00000000    0.00000000    0.00000000
     atom   24 type  2   force =     0.00000000    0.00000000    0.00000000
     atom   25 type  2   force =     0.00000000    0.00000000    0.00000000
     atom   26 type  2   force =     0.00000000    0.00000000    0.00000000
     atom   27 type  2   force =     0.00000000    0.00000000    0.00000000
     atom   28 type  2   force =     0.00000000    0.00000000    0.00000000
     atom   29 type  2   force =     0.00000000    0.00000000    0.00000000
     atom   30 type  2   force =     0.00000000    0.00000000    0.00000000
     atom   31 type  2   force =     0.00000000    0.00000000    0.00000000
     atom   32 type  2   force =     0.00000000    0.00000000    0.00000000
     atom   33 type  2   force =     0.00000000    0.00000000    0.00000000
     atom   34 type  2   force =     0.00000000    0.00000000    0.00000000
     atom   35 type  2   force =     0.00000000    0.00000000    0.00000000
     atom   36 type  2   force =     0.00000000    0.00000000    0.00000000
     atom   37 type  2   force =     0.00000000    0.00000000    0.00000000
     atom   38 type  2   force =     0.00000000    0.00000000    0.00000000
     atom   39 type  2   force =     0.00000000    0.00000000    0.00000000
     atom   40 type  2   force =     0.00000000    0.00000000    0.00000000
     The SCF correction term to forces
     atom    1 type  1   force =     0.00000049    0.00000049    0.00000049
     atom    2 type  1   force =    -0.00000049    0.00000049   -0.00000049
     atom    3 type  1   force =     0.00000049   -0.00000049   -0.00000049
     atom    4 type  1   force =    -0.00000049   -0.00000049    0.00000049
     atom    5 type  1   force =     0.00000049    0.00000049   -0.00000049
     atom    6 type  1   force =     0.00000049   -0.00000049    0.00000049
     atom    7 type  1   force =    -0.00000049    0.00000049    0.00000049
     atom    8 type  1   force =    -0.00000049   -0.00000049   -0.00000049
     atom    9 type  4   force =    -0.00000000    0.00000000   -0.00000000
     atom   10 type  3   force =     0.00000000   -0.00000000   -0.00000000
     atom   11 type  3   force =     0.00000000    0.00000000   -0.00000000
     atom   12 type  3   force =     0.00000000    0.00000000   -0.00000000
     atom   13 type  3   force =     0.00000000   -0.00000000   -0.00000000
     atom   14 type  3   force =     0.00000000    0.00000000    0.00000000
     atom   15 type  3   force =     0.00000000    0.00000000   -0.00000000
     atom   16 type  3   force =     0.00000000   -0.00000000   -0.00000000
     atom   17 type  2   force =     0.00000000    0.00000030    0.00000000
     atom   18 type  2   force =    -0.00000000   -0.00000030    0.00000000
     atom   19 type  2   force =     0.00000030   -0.00000000    0.00000000
     atom   20 type  2   force =    -0.00000030   -0.00000000    0.00000000
     atom   21 type  2   force =    -0.00000000   -0.00000000   -0.00000030
     atom   22 type  2   force =     0.00000000    0.00000000    0.00000030
     atom   23 type  2   force =     0.00000000    0.00000000    0.00000096
     atom   24 type  2   force =    -0.00000000    0.00000000   -0.00000096
     atom   25 type  2   force =     0.00000096   -0.00000000    0.00000000
     atom   26 type  2   force =    -0.00000096   -0.00000000    0.00000000
     atom   27 type  2   force =     0.00000000    0.00000096    0.00000000
     atom   28 type  2   force =    -0.00000000   -0.00000096    0.00000000
     atom   29 type  2   force =     0.00000000   -0.00000000   -0.00000096
     atom   30 type  2   force =     0.00000000    0.00000000    0.00000096
     atom   31 type  2   force =     0.00000000    0.00000096    0.00000000
     atom   32 type  2   force =     0.00000000   -0.00000096    0.00000000
     atom   33 type  2   force =     0.00000096   -0.00000000    0.00000000
     atom   34 type  2   force =    -0.00000096   -0.00000000    0.00000000
     atom   35 type  2   force =     0.00000012   -0.00000000    0.00000000
     atom   36 type  2   force =    -0.00000012    0.00000000    0.00000000
     atom   37 type  2   force =     0.00000000    0.00000000   -0.00000012
     atom   38 type  2   force =     0.00000000    0.00000000    0.00000012
     atom   39 type  2   force =     0.00000000    0.00000012    0.00000000
     atom   40 type  2   force =    -0.00000000   -0.00000012    0.00000000

     Total force =     0.000139     Total SCF correction =     0.000004


     Computing stress (Cartesian axis) and pressure

          total   stress  (Ry/bohr**3)                   (kbar)     P=       -0.38
  -0.00000257   0.00000000   0.00000000           -0.38        0.00        0.00
   0.00000000  -0.00000257   0.00000000            0.00       -0.38        0.00
   0.00000000   0.00000000  -0.00000257            0.00        0.00       -0.38

     kinetic stress (kbar)   3993.38      0.00      0.00
                                0.00   3993.38      0.00
                                0.00      0.00   3993.38

     local   stress (kbar)   -905.06     -0.00      0.00
                               -0.00   -905.06     -0.00
                                0.00     -0.00   -905.06

     nonloc. stress (kbar)    960.51      0.00      0.00
                                0.00    960.51      0.00
                                0.00      0.00    960.51

     hartree stress (kbar)   3093.43     -0.00     -0.00
                               -0.00   3093.43     -0.00
                               -0.00     -0.00   3093.43

     exc-cor stress (kbar)  13217.76     -0.00     -0.00
                               -0.00  13217.76     -0.00
                               -0.00     -0.00  13217.76

     corecor stress (kbar) -15096.14     -0.00     -0.00
                               -0.00 -15096.14      0.00
                               -0.00      0.00 -15096.14

     ewald   stress (kbar)  -5264.24     -0.00      0.00
                               -0.00  -5264.24     -0.00
                                0.00     -0.00  -5264.24

     hubbard stress (kbar)      0.00      0.00      0.00
                                0.00      0.00      0.00
                                0.00      0.00      0.00

     DFT-D   stress (kbar)      0.00      0.00      0.00
                                0.00      0.00      0.00
                                0.00      0.00      0.00

     XDM     stress (kbar)      0.00      0.00      0.00
                                0.00      0.00      0.00
                                0.00      0.00      0.00

     dft-nl  stress (kbar)      0.00      0.00      0.00
                                0.00      0.00      0.00
                                0.00      0.00      0.00

     TS-vdW  stress (kbar)      0.00      0.00      0.00
                                0.00      0.00      0.00
                                0.00      0.00      0.00

     MDB     stress (kbar)      0.00      0.00      0.00
                                0.00      0.00      0.00
                                0.00      0.00      0.00

     3D-RISM stress (kbar)      0.00      0.00      0.00
                                0.00      0.00      0.00
                                0.00      0.00      0.00


     Writing all to output data dir ../out/aiida.save/ :
     XML data file, charge density, pseudopotentials, collected wavefunctions
 
     init_run     :     79.52s CPU     79.90s WALL (       2 calls)
     electrons    :  40300.10s CPU  40304.31s WALL (      25 calls)
     update_pot   :     34.27s CPU     34.27s WALL (      23 calls)
     forces       :    614.12s CPU    614.11s WALL (      25 calls)
     stress       :   2023.89s CPU   2023.77s WALL (      25 calls)

     Called by init_run:
     wfcinit      :     68.71s CPU     68.88s WALL (       2 calls)
     wfcinit:atom :      3.68s CPU      3.68s WALL (      20 calls)
     wfcinit:wfcr :     63.55s CPU     63.63s WALL (      20 calls)
     potinit      :      3.01s CPU      3.05s WALL (       2 calls)
     hinit0       :      2.89s CPU      2.91s WALL (       2 calls)

     Called by electrons:
     c_bands      :  33644.52s CPU  33645.77s WALL (     374 calls)
     sum_band     :   5376.46s CPU   5377.37s WALL (     374 calls)
     v_of_rho     :     60.84s CPU     61.09s WALL (     382 calls)
     v_h          :      9.11s CPU      9.30s WALL (     382 calls)
     v_xc         :     58.81s CPU     58.87s WALL (     432 calls)
     newd         :    812.78s CPU    813.00s WALL (     382 calls)
                                      812.74s GPU  (     382 calls)
     PAW_pot      :    458.79s CPU    458.72s WALL (     405 calls)
     mix_rho      :     42.05s CPU     42.09s WALL (     374 calls)

     Called by c_bands:
     init_us_2    :    459.02s CPU    458.98s WALL (    8230 calls)
     cegterg      :  32793.47s CPU  32794.62s WALL (    3750 calls)

     Called by sum_band:
     sum_band:wei :      1.09s CPU      1.09s WALL (     374 calls)
     sum_band:loo :   4514.11s CPU   4514.57s WALL (     374 calls)
     sum_band:buf :    114.69s CPU    114.69s WALL (    3740 calls)
     sum_band:ini :    163.06s CPU    163.05s WALL (    3740 calls)
     sum_band:cal :   1991.49s CPU   1991.39s WALL (    3970 calls)
     sum_band:bec :    400.57s CPU    400.52s WALL (    3970 calls)
     addusdens    :    842.08s CPU    842.07s WALL (     374 calls)
                                      841.95s GPU  (     374 calls)
     addusd:skk   :     21.04s CPU     22.03s WALL (    1496 calls)
                                       21.03s GPU  (    1496 calls)

     Called by *egterg:
     cdiaghg      :    527.23s CPU    533.32s WALL (   17037 calls)
                                      525.60s GPU  (   17037 calls)
     cegterg:over :   5588.17s CPU   5587.82s WALL (   13697 calls)
     cegterg:upda :   2752.57s CPU   2752.11s WALL (   13697 calls)
     cegterg:last :   4334.21s CPU   4333.54s WALL (    7669 calls)
     h_psi        :  15710.41s CPU  15766.09s WALL (   17467 calls)
                                    15742.14s GPU  (   17467 calls)
     s_psi        :   1161.95s CPU   1161.83s WALL (   17467 calls)
     g_psi        :      0.08s CPU     66.10s WALL (   13697 calls)
                                        5.55s GPU  (   13697 calls)

     Called by h_psi:
     h_psi:calbec :   4600.84s CPU   4609.71s WALL (   17467 calls)
                                     4473.20s GPU  (   17467 calls)
     vloc_psi     :   7440.60s CPU   7454.34s WALL (   17467 calls)
                                     7439.39s GPU  (   17467 calls)
     add_vuspsi   :    667.08s CPU   3502.19s WALL (   17467 calls)
                                     3492.77s GPU  (   17467 calls)

     General routines
     calbec       :   8624.85s CPU   8624.76s WALL (   25687 calls)
     fft          :     34.88s CPU     45.16s WALL (    5581 calls)
                                       33.07s GPU  (    5199 calls)
     ffts         :      3.21s CPU      3.57s WALL (     756 calls)
                                        1.94s GPU  (     374 calls)
     fftw         :   5963.00s CPU   6571.64s WALL (  319828 calls)
                                     5156.38s GPU  (  319828 calls)
     interpolate  :      8.74s CPU      9.41s WALL (     382 calls)
 
     Parallel routines

     PAW routines
     PAW_pot      :    458.79s CPU    458.72s WALL (     405 calls)
     PAW_symme    :      1.11s CPU      1.11s WALL (     779 calls)
 
     PWSCF        :     12h 1m CPU     12h 1m WALL

 
   This run was terminated on:  20: 7:34  28Mar2025            

=------------------------------------------------------------------------------=
   JOB DONE.
=------------------------------------------------------------------------------=
