
     Program PWSCF v.7.4 starts on 11Apr2025 at 10:56:55 

     This program is part of the open-source Quantum ESPRESSO suite
     for quantum simulation of materials; please cite
         "P. Giannozzi et al., J. Phys.:Condens. Matter 21 395502 (2009);
         "P. Giannozzi et al., J. Phys.:Condens. Matter 29 465901 (2017);
         "P. Giannozzi et al., J. Chem. Phys. 152 154105 (2020);
          URL http://www.quantum-espresso.org", 
     in publications or presentations arising from this work. More details at
     http://www.quantum-espresso.org/quote

     Parallel version (MPI), running on     4 processors

     MPI processes distributed on     1 nodes
     25986 MiB available memory on the printing compute node when the environment starts
 
     Waiting for input...
     Reading input from standard input

     Current dimensions of program PWSCF are:
     Max number of different atomic species (ntypx) = 10
     Max number of k-points (npk) =  40000
     Max angular momentum in pseudopotentials (lmaxx) =  4

     File ../out/aiida.update deleted, as requested

     File ../out/aiida.bfgs deleted, as requested
     file Pb.pbe-dn-kjpaw_psl.0.2.2.UPF: wavefunction(s)  6S renormalized
 
     R & G space division:  proc/nbgrp/npool/nimage =       4
     Subspace diagonalization in iterative solution of the eigenvalue problem:
     a serial algorithm will be used

 
     Parallelization info
     --------------------
     sticks:   dense  smooth     PW     G-vecs:    dense   smooth      PW
     Min        3608    1801    483               326268   115333   16021
     Max        3609    1803    484               326271   115335   16022
     Sum       14433    7209   1933              1305079   461335   64085
 
     Using Slab Decomposition
 


     bravais-lattice index     =            1
     lattice parameter (alat)  =      23.8105  a.u.
     unit-cell volume          =   13499.2064 (a.u.)^3
     number of atoms/cell      =           40
     number of atomic types    =            4
     number of electrons       =       356.00
     number of Kohn-Sham states=          214
     kinetic-energy cutoff     =      40.0000  Ry
     charge density cutoff     =     320.0000  Ry
     scf convergence threshold =      1.4E-09
     mixing beta               =       0.7000
     number of iterations used =            8  plain     mixing
     energy convergence thresh.=      7.0E-05
     force convergence thresh. =      1.0E-04
     press convergence thresh. =      5.0E-02
     Exchange-correlation= SLA  PW   PBE  PBE
                           (   1   4   3   4   0   0   0)
     nstep                     =           50


     GPU acceleration is ACTIVE.  1 visible GPUs per MPI rank
     GPU-aware MPI enabled

     Message from routine print_cuda_info:
     High GPU oversubscription detected. Are you sure this is what you want?

     GPU used by master process:

        Device Number: 0
        Device name: NVIDIA RTX A2000 12GB
        Compute capability : 86
        Ratio of single to double precision performance  : 32
        Memory Clock Rate (KHz): 6001000
        Memory Bus Width (bits): 192
        Peak Memory Bandwidth (GB/s): 288.05

     celldm(1)=  23.810549  celldm(2)=   0.000000  celldm(3)=   0.000000
     celldm(4)=   0.000000  celldm(5)=   0.000000  celldm(6)=   0.000000

     crystal axes: (cart. coord. in units of alat)
               a(1) = (   1.000000   0.000000   0.000000 )  
               a(2) = (   0.000000   1.000000   0.000000 )  
               a(3) = (   0.000000   0.000000   1.000000 )  

     reciprocal axes: (cart. coord. in units 2 pi/alat)
               b(1) = (  1.000000  0.000000  0.000000 )  
               b(2) = (  0.000000  1.000000  0.000000 )  
               b(3) = (  0.000000  0.000000  1.000000 )  


     PseudoPot. # 1 for Cs read from file:
     ../pseudo/Cs_pbe_v1.uspp.F.UPF
     MD5 check sum: 3476d69cb178dfad3ffaa59df4e07ca4
     Pseudo is Ultrasoft + core correction, Zval =  9.0
     Generated by new atomic code, or converted to UPF format
     Using radial grid of  905 points,  6 beta functions with: 
                l(1) =   0
                l(2) =   0
                l(3) =   1
                l(4) =   1
                l(5) =   2
                l(6) =   2
     Q(r) pseudized with  6 coefficients,  rinner =    1.500   1.500   1.500
                                                       1.500   1.500

     PseudoPot. # 2 for I  read from file:
     ../pseudo/I.pbe-n-kjpaw_psl.0.2.UPF
     MD5 check sum: d4ef18d9c8f18dc85e5843bca1e50dc0
     Pseudo is Projector augmented-wave + core cor, Zval =  7.0
     Generated using "atomic" code by A. Dal Corso  v.5.0.99 svn rev. 10869
     Shape of augmentation charge: PSQ
     Using radial grid of 1247 points,  4 beta functions with: 
                l(1) =   0
                l(2) =   0
                l(3) =   1
                l(4) =   1
     Q(r) pseudized with 0 coefficients 


     PseudoPot. # 3 for Pb read from file:
     ../pseudo/Pb.pbe-dn-kjpaw_psl.0.2.2.UPF
     MD5 check sum: 9d431e6316058b74ade52399a6cf67da
     Pseudo is Projector augmented-wave + core cor, Zval = 14.0
     Generated using "atomic" code by A. Dal Corso  v.5.0.99 svn rev. 10869
     Shape of augmentation charge: PSQ
     Using radial grid of 1281 points,  6 beta functions with: 
                l(1) =   0
                l(2) =   0
                l(3) =   1
                l(4) =   1
                l(5) =   2
                l(6) =   2
     Q(r) pseudized with 0 coefficients 


     PseudoPot. # 4 for Zn read from file:
     ../pseudo/Zn_pbe_v1.uspp.F.UPF
     MD5 check sum: df62231357ef9e81f77b2b3087fa5675
     Pseudo is Ultrasoft, Zval = 20.0
     Generated by new atomic code, or converted to UPF format
     Using radial grid of  943 points,  6 beta functions with: 
                l(1) =   0
                l(2) =   0
                l(3) =   1
                l(4) =   1
                l(5) =   2
                l(6) =   2
     Q(r) pseudized with  8 coefficients,  rinner =    1.100   1.100   1.100
                                                       1.100   1.100

     atomic species   valence    mass     pseudopotential
     Cs                9.00   132.90545     Cs( 1.00)
     I                 7.00   126.90447     I ( 1.00)
     Pb               14.00   207.20000     Pb( 1.00)
     Zn               20.00    65.38000     Zn( 1.00)

     48 Sym. Ops., with inversion, found


                                    s                        frac. trans.

      isym =  1     identity                                     

 cryst.   s( 1) = (     1          0          0      )
                  (     0          1          0      )
                  (     0          0          1      )

 cart.    s( 1) = (  1.0000000  0.0000000  0.0000000 )
                  (  0.0000000  1.0000000  0.0000000 )
                  (  0.0000000  0.0000000  1.0000000 )


      isym =  2     180 deg rotation - cart. axis [0,0,1]        

 cryst.   s( 2) = (    -1          0          0      )
                  (     0         -1          0      )
                  (     0          0          1      )

 cart.    s( 2) = ( -1.0000000  0.0000000  0.0000000 )
                  (  0.0000000 -1.0000000  0.0000000 )
                  (  0.0000000  0.0000000  1.0000000 )


      isym =  3     180 deg rotation - cart. axis [0,1,0]        

 cryst.   s( 3) = (    -1          0          0      )
                  (     0          1          0      )
                  (     0          0         -1      )

 cart.    s( 3) = ( -1.0000000  0.0000000  0.0000000 )
                  (  0.0000000  1.0000000  0.0000000 )
                  (  0.0000000  0.0000000 -1.0000000 )


      isym =  4     180 deg rotation - cart. axis [1,0,0]        

 cryst.   s( 4) = (     1          0          0      )
                  (     0         -1          0      )
                  (     0          0         -1      )

 cart.    s( 4) = (  1.0000000  0.0000000  0.0000000 )
                  (  0.0000000 -1.0000000  0.0000000 )
                  (  0.0000000  0.0000000 -1.0000000 )


      isym =  5     180 deg rotation - cart. axis [1,1,0]        

 cryst.   s( 5) = (     0          1          0      )
                  (     1          0          0      )
                  (     0          0         -1      )

 cart.    s( 5) = (  0.0000000  1.0000000  0.0000000 )
                  (  1.0000000  0.0000000  0.0000000 )
                  (  0.0000000  0.0000000 -1.0000000 )


      isym =  6     180 deg rotation - cart. axis [1,-1,0]       

 cryst.   s( 6) = (     0         -1          0      )
                  (    -1          0          0      )
                  (     0          0         -1      )

 cart.    s( 6) = (  0.0000000 -1.0000000  0.0000000 )
                  ( -1.0000000  0.0000000  0.0000000 )
                  (  0.0000000  0.0000000 -1.0000000 )


      isym =  7      90 deg rotation - cart. axis [0,0,-1]       

 cryst.   s( 7) = (     0         -1          0      )
                  (     1          0          0      )
                  (     0          0          1      )

 cart.    s( 7) = (  0.0000000  1.0000000  0.0000000 )
                  ( -1.0000000  0.0000000  0.0000000 )
                  (  0.0000000  0.0000000  1.0000000 )


      isym =  8      90 deg rotation - cart. axis [0,0,1]        

 cryst.   s( 8) = (     0          1          0      )
                  (    -1          0          0      )
                  (     0          0          1      )

 cart.    s( 8) = (  0.0000000 -1.0000000  0.0000000 )
                  (  1.0000000  0.0000000  0.0000000 )
                  (  0.0000000  0.0000000  1.0000000 )


      isym =  9     180 deg rotation - cart. axis [1,0,1]        

 cryst.   s( 9) = (     0          0          1      )
                  (     0         -1          0      )
                  (     1          0          0      )

 cart.    s( 9) = (  0.0000000  0.0000000  1.0000000 )
                  (  0.0000000 -1.0000000  0.0000000 )
                  (  1.0000000  0.0000000  0.0000000 )


      isym = 10     180 deg rotation - cart. axis [-1,0,1]       

 cryst.   s(10) = (     0          0         -1      )
                  (     0         -1          0      )
                  (    -1          0          0      )

 cart.    s(10) = (  0.0000000  0.0000000 -1.0000000 )
                  (  0.0000000 -1.0000000  0.0000000 )
                  ( -1.0000000  0.0000000  0.0000000 )


      isym = 11      90 deg rotation - cart. axis [0,1,0]        

 cryst.   s(11) = (     0          0         -1      )
                  (     0          1          0      )
                  (     1          0          0      )

 cart.    s(11) = (  0.0000000  0.0000000  1.0000000 )
                  (  0.0000000  1.0000000  0.0000000 )
                  ( -1.0000000  0.0000000  0.0000000 )


      isym = 12      90 deg rotation - cart. axis [0,-1,0]       

 cryst.   s(12) = (     0          0          1      )
                  (     0          1          0      )
                  (    -1          0          0      )

 cart.    s(12) = (  0.0000000  0.0000000 -1.0000000 )
                  (  0.0000000  1.0000000  0.0000000 )
                  (  1.0000000  0.0000000  0.0000000 )


      isym = 13     180 deg rotation - cart. axis [0,1,1]        

 cryst.   s(13) = (    -1          0          0      )
                  (     0          0          1      )
                  (     0          1          0      )

 cart.    s(13) = ( -1.0000000  0.0000000  0.0000000 )
                  (  0.0000000  0.0000000  1.0000000 )
                  (  0.0000000  1.0000000  0.0000000 )


      isym = 14     180 deg rotation - cart. axis [0,1,-1]       

 cryst.   s(14) = (    -1          0          0      )
                  (     0          0         -1      )
                  (     0         -1          0      )

 cart.    s(14) = ( -1.0000000  0.0000000  0.0000000 )
                  (  0.0000000  0.0000000 -1.0000000 )
                  (  0.0000000 -1.0000000  0.0000000 )


      isym = 15      90 deg rotation - cart. axis [-1,0,0]       

 cryst.   s(15) = (     1          0          0      )
                  (     0          0         -1      )
                  (     0          1          0      )

 cart.    s(15) = (  1.0000000  0.0000000  0.0000000 )
                  (  0.0000000  0.0000000  1.0000000 )
                  (  0.0000000 -1.0000000  0.0000000 )


      isym = 16      90 deg rotation - cart. axis [1,0,0]        

 cryst.   s(16) = (     1          0          0      )
                  (     0          0          1      )
                  (     0         -1          0      )

 cart.    s(16) = (  1.0000000  0.0000000  0.0000000 )
                  (  0.0000000  0.0000000 -1.0000000 )
                  (  0.0000000  1.0000000  0.0000000 )


      isym = 17     120 deg rotation - cart. axis [-1,-1,-1]     

 cryst.   s(17) = (     0          0          1      )
                  (     1          0          0      )
                  (     0          1          0      )

 cart.    s(17) = (  0.0000000  1.0000000  0.0000000 )
                  (  0.0000000  0.0000000  1.0000000 )
                  (  1.0000000  0.0000000  0.0000000 )


      isym = 18     120 deg rotation - cart. axis [-1,1,1]       

 cryst.   s(18) = (     0          0         -1      )
                  (    -1          0          0      )
                  (     0          1          0      )

 cart.    s(18) = (  0.0000000 -1.0000000  0.0000000 )
                  (  0.0000000  0.0000000  1.0000000 )
                  ( -1.0000000  0.0000000  0.0000000 )


      isym = 19     120 deg rotation - cart. axis [1,1,-1]       

 cryst.   s(19) = (     0          0         -1      )
                  (     1          0          0      )
                  (     0         -1          0      )

 cart.    s(19) = (  0.0000000  1.0000000  0.0000000 )
                  (  0.0000000  0.0000000 -1.0000000 )
                  ( -1.0000000  0.0000000  0.0000000 )


      isym = 20     120 deg rotation - cart. axis [1,-1,1]       

 cryst.   s(20) = (     0          0          1      )
                  (    -1          0          0      )
                  (     0         -1          0      )

 cart.    s(20) = (  0.0000000 -1.0000000  0.0000000 )
                  (  0.0000000  0.0000000 -1.0000000 )
                  (  1.0000000  0.0000000  0.0000000 )


      isym = 21     120 deg rotation - cart. axis [1,1,1]        

 cryst.   s(21) = (     0          1          0      )
                  (     0          0          1      )
                  (     1          0          0      )

 cart.    s(21) = (  0.0000000  0.0000000  1.0000000 )
                  (  1.0000000  0.0000000  0.0000000 )
                  (  0.0000000  1.0000000  0.0000000 )


      isym = 22     120 deg rotation - cart. axis [-1,1,-1]      

 cryst.   s(22) = (     0         -1          0      )
                  (     0          0         -1      )
                  (     1          0          0      )

 cart.    s(22) = (  0.0000000  0.0000000  1.0000000 )
                  ( -1.0000000  0.0000000  0.0000000 )
                  (  0.0000000 -1.0000000  0.0000000 )


      isym = 23     120 deg rotation - cart. axis [1,-1,-1]      

 cryst.   s(23) = (     0         -1          0      )
                  (     0          0          1      )
                  (    -1          0          0      )

 cart.    s(23) = (  0.0000000  0.0000000 -1.0000000 )
                  ( -1.0000000  0.0000000  0.0000000 )
                  (  0.0000000  1.0000000  0.0000000 )


      isym = 24     120 deg rotation - cart. axis [-1,-1,1]      

 cryst.   s(24) = (     0          1          0      )
                  (     0          0         -1      )
                  (    -1          0          0      )

 cart.    s(24) = (  0.0000000  0.0000000 -1.0000000 )
                  (  1.0000000  0.0000000  0.0000000 )
                  (  0.0000000 -1.0000000  0.0000000 )


      isym = 25     inversion                                    

 cryst.   s(25) = (    -1          0          0      )
                  (     0         -1          0      )
                  (     0          0         -1      )

 cart.    s(25) = ( -1.0000000  0.0000000  0.0000000 )
                  (  0.0000000 -1.0000000  0.0000000 )
                  (  0.0000000  0.0000000 -1.0000000 )


      isym = 26     inv. 180 deg rotation - cart. axis [0,0,1]   

 cryst.   s(26) = (     1          0          0      )
                  (     0          1          0      )
                  (     0          0         -1      )

 cart.    s(26) = (  1.0000000  0.0000000  0.0000000 )
                  (  0.0000000  1.0000000  0.0000000 )
                  (  0.0000000  0.0000000 -1.0000000 )


      isym = 27     inv. 180 deg rotation - cart. axis [0,1,0]   

 cryst.   s(27) = (     1          0          0      )
                  (     0         -1          0      )
                  (     0          0          1      )

 cart.    s(27) = (  1.0000000  0.0000000  0.0000000 )
                  (  0.0000000 -1.0000000  0.0000000 )
                  (  0.0000000  0.0000000  1.0000000 )


      isym = 28     inv. 180 deg rotation - cart. axis [1,0,0]   

 cryst.   s(28) = (    -1          0          0      )
                  (     0          1          0      )
                  (     0          0          1      )

 cart.    s(28) = ( -1.0000000  0.0000000  0.0000000 )
                  (  0.0000000  1.0000000  0.0000000 )
                  (  0.0000000  0.0000000  1.0000000 )


      isym = 29     inv. 180 deg rotation - cart. axis [1,1,0]   

 cryst.   s(29) = (     0         -1          0      )
                  (    -1          0          0      )
                  (     0          0          1      )

 cart.    s(29) = (  0.0000000 -1.0000000  0.0000000 )
                  ( -1.0000000  0.0000000  0.0000000 )
                  (  0.0000000  0.0000000  1.0000000 )


      isym = 30     inv. 180 deg rotation - cart. axis [1,-1,0]  

 cryst.   s(30) = (     0          1          0      )
                  (     1          0          0      )
                  (     0          0          1      )

 cart.    s(30) = (  0.0000000  1.0000000  0.0000000 )
                  (  1.0000000  0.0000000  0.0000000 )
                  (  0.0000000  0.0000000  1.0000000 )


      isym = 31     inv.  90 deg rotation - cart. axis [0,0,-1]  

 cryst.   s(31) = (     0          1          0      )
                  (    -1          0          0      )
                  (     0          0         -1      )

 cart.    s(31) = (  0.0000000 -1.0000000  0.0000000 )
                  (  1.0000000  0.0000000  0.0000000 )
                  (  0.0000000  0.0000000 -1.0000000 )


      isym = 32     inv.  90 deg rotation - cart. axis [0,0,1]   

 cryst.   s(32) = (     0         -1          0      )
                  (     1          0          0      )
                  (     0          0         -1      )

 cart.    s(32) = (  0.0000000  1.0000000  0.0000000 )
                  ( -1.0000000  0.0000000  0.0000000 )
                  (  0.0000000  0.0000000 -1.0000000 )


      isym = 33     inv. 180 deg rotation - cart. axis [1,0,1]   

 cryst.   s(33) = (     0          0         -1      )
                  (     0          1          0      )
                  (    -1          0          0      )

 cart.    s(33) = (  0.0000000  0.0000000 -1.0000000 )
                  (  0.0000000  1.0000000  0.0000000 )
                  ( -1.0000000  0.0000000  0.0000000 )


      isym = 34     inv. 180 deg rotation - cart. axis [-1,0,1]  

 cryst.   s(34) = (     0          0          1      )
                  (     0          1          0      )
                  (     1          0          0      )

 cart.    s(34) = (  0.0000000  0.0000000  1.0000000 )
                  (  0.0000000  1.0000000  0.0000000 )
                  (  1.0000000  0.0000000  0.0000000 )


      isym = 35     inv.  90 deg rotation - cart. axis [0,1,0]   

 cryst.   s(35) = (     0          0          1      )
                  (     0         -1          0      )
                  (    -1          0          0      )

 cart.    s(35) = (  0.0000000  0.0000000 -1.0000000 )
                  (  0.0000000 -1.0000000  0.0000000 )
                  (  1.0000000  0.0000000  0.0000000 )


      isym = 36     inv.  90 deg rotation - cart. axis [0,-1,0]  

 cryst.   s(36) = (     0          0         -1      )
                  (     0         -1          0      )
                  (     1          0          0      )

 cart.    s(36) = (  0.0000000  0.0000000  1.0000000 )
                  (  0.0000000 -1.0000000  0.0000000 )
                  ( -1.0000000  0.0000000  0.0000000 )


      isym = 37     inv. 180 deg rotation - cart. axis [0,1,1]   

 cryst.   s(37) = (     1          0          0      )
                  (     0          0         -1      )
                  (     0         -1          0      )

 cart.    s(37) = (  1.0000000  0.0000000  0.0000000 )
                  (  0.0000000  0.0000000 -1.0000000 )
                  (  0.0000000 -1.0000000  0.0000000 )


      isym = 38     inv. 180 deg rotation - cart. axis [0,1,-1]  

 cryst.   s(38) = (     1          0          0      )
                  (     0          0          1      )
                  (     0          1          0      )

 cart.    s(38) = (  1.0000000  0.0000000  0.0000000 )
                  (  0.0000000  0.0000000  1.0000000 )
                  (  0.0000000  1.0000000  0.0000000 )


      isym = 39     inv.  90 deg rotation - cart. axis [-1,0,0]  

 cryst.   s(39) = (    -1          0          0      )
                  (     0          0          1      )
                  (     0         -1          0      )

 cart.    s(39) = ( -1.0000000  0.0000000  0.0000000 )
                  (  0.0000000  0.0000000 -1.0000000 )
                  (  0.0000000  1.0000000  0.0000000 )


      isym = 40     inv.  90 deg rotation - cart. axis [1,0,0]   

 cryst.   s(40) = (    -1          0          0      )
                  (     0          0         -1      )
                  (     0          1          0      )

 cart.    s(40) = ( -1.0000000  0.0000000  0.0000000 )
                  (  0.0000000  0.0000000  1.0000000 )
                  (  0.0000000 -1.0000000  0.0000000 )


      isym = 41     inv. 120 deg rotation - cart. axis [-1,-1,-1]

 cryst.   s(41) = (     0          0         -1      )
                  (    -1          0          0      )
                  (     0         -1          0      )

 cart.    s(41) = (  0.0000000 -1.0000000  0.0000000 )
                  (  0.0000000  0.0000000 -1.0000000 )
                  ( -1.0000000  0.0000000  0.0000000 )


      isym = 42     inv. 120 deg rotation - cart. axis [-1,1,1]  

 cryst.   s(42) = (     0          0          1      )
                  (     1          0          0      )
                  (     0         -1          0      )

 cart.    s(42) = (  0.0000000  1.0000000  0.0000000 )
                  (  0.0000000  0.0000000 -1.0000000 )
                  (  1.0000000  0.0000000  0.0000000 )


      isym = 43     inv. 120 deg rotation - cart. axis [1,1,-1]  

 cryst.   s(43) = (     0          0          1      )
                  (    -1          0          0      )
                  (     0          1          0      )

 cart.    s(43) = (  0.0000000 -1.0000000  0.0000000 )
                  (  0.0000000  0.0000000  1.0000000 )
                  (  1.0000000  0.0000000  0.0000000 )


      isym = 44     inv. 120 deg rotation - cart. axis [1,-1,1]  

 cryst.   s(44) = (     0          0         -1      )
                  (     1          0          0      )
                  (     0          1          0      )

 cart.    s(44) = (  0.0000000  1.0000000  0.0000000 )
                  (  0.0000000  0.0000000  1.0000000 )
                  ( -1.0000000  0.0000000  0.0000000 )


      isym = 45     inv. 120 deg rotation - cart. axis [1,1,1]   

 cryst.   s(45) = (     0         -1          0      )
                  (     0          0         -1      )
                  (    -1          0          0      )

 cart.    s(45) = (  0.0000000  0.0000000 -1.0000000 )
                  ( -1.0000000  0.0000000  0.0000000 )
                  (  0.0000000 -1.0000000  0.0000000 )


      isym = 46     inv. 120 deg rotation - cart. axis [-1,1,-1] 

 cryst.   s(46) = (     0          1          0      )
                  (     0          0          1      )
                  (    -1          0          0      )

 cart.    s(46) = (  0.0000000  0.0000000 -1.0000000 )
                  (  1.0000000  0.0000000  0.0000000 )
                  (  0.0000000  1.0000000  0.0000000 )


      isym = 47     inv. 120 deg rotation - cart. axis [1,-1,-1] 

 cryst.   s(47) = (     0          1          0      )
                  (     0          0         -1      )
                  (     1          0          0      )

 cart.    s(47) = (  0.0000000  0.0000000  1.0000000 )
                  (  1.0000000  0.0000000  0.0000000 )
                  (  0.0000000 -1.0000000  0.0000000 )


      isym = 48     inv. 120 deg rotation - cart. axis [-1,-1,1] 

 cryst.   s(48) = (     0         -1          0      )
                  (     0          0          1      )
                  (     1          0          0      )

 cart.    s(48) = (  0.0000000  0.0000000  1.0000000 )
                  ( -1.0000000  0.0000000  0.0000000 )
                  (  0.0000000  1.0000000  0.0000000 )


     point group O_h (m-3m) 
     there are 10 classes
     the character table:

       E     8C3   3C2   6C4   6C2'  i     8S6   3s_h  6S4   6s_d 
A_1g   1.00  1.00  1.00  1.00  1.00  1.00  1.00  1.00  1.00  1.00
A_2g   1.00  1.00  1.00 -1.00 -1.00  1.00  1.00  1.00 -1.00 -1.00
E_g    2.00 -1.00  2.00  0.00  0.00  2.00 -1.00  2.00  0.00  0.00
T_1g   3.00  0.00 -1.00  1.00 -1.00  3.00  0.00 -1.00  1.00 -1.00
T_2g   3.00  0.00 -1.00 -1.00  1.00  3.00  0.00 -1.00 -1.00  1.00
A_1u   1.00  1.00  1.00  1.00  1.00 -1.00 -1.00 -1.00 -1.00 -1.00
A_2u   1.00  1.00  1.00 -1.00 -1.00 -1.00 -1.00 -1.00  1.00  1.00
E_u    2.00 -1.00  2.00  0.00  0.00 -2.00  1.00 -2.00  0.00  0.00
T_1u   3.00  0.00 -1.00  1.00 -1.00 -3.00  0.00  1.00 -1.00  1.00
T_2u   3.00  0.00 -1.00 -1.00  1.00 -3.00  0.00  1.00  1.00 -1.00

     the symmetry operations in each class and the name of the first element:

     E        1
          identity                                               
     8C3     17   19   20   18   24   21   22   23
          120 deg rotation - cart. axis [-1,-1,-1]               
     3C2      2    4    3
          180 deg rotation - cart. axis [0,0,1]                  
     6C4      7    8   15   16   12   11
           90 deg rotation - cart. axis [0,0,-1]                 
     6C2'     5    6   14   13   10    9
          180 deg rotation - cart. axis [1,1,0]                  
     i       25
          inversion                                              
     8S6     41   43   44   42   48   45   46   47
          inv. 120 deg rotation - cart. axis [-1,-1,-1]          
     3s_h    26   28   27
          inv. 180 deg rotation - cart. axis [0,0,1]             
     6S4     31   32   39   40   36   35
          inv.  90 deg rotation - cart. axis [0,0,-1]            
     6s_d    29   30   38   37   34   33
          inv. 180 deg rotation - cart. axis [1,1,0]             

   Cartesian axes

     site n.     atom                  positions (alat units)
         1        Cs     tau(   1) = (   0.7500000   0.7500000   0.7500000  )
         2        Cs     tau(   2) = (   0.2500000   0.7500000   0.2500000  )
         3        Cs     tau(   3) = (   0.7500000   0.2500000   0.2500000  )
         4        Cs     tau(   4) = (   0.2500000   0.2500000   0.7500000  )
         5        Cs     tau(   5) = (   0.7500000   0.7500000   0.2500000  )
         6        Cs     tau(   6) = (   0.7500000   0.2500000   0.7500000  )
         7        Cs     tau(   7) = (   0.2500000   0.7500000   0.7500000  )
         8        Cs     tau(   8) = (   0.2500000   0.2500000   0.2500000  )
         9        Zn     tau(   9) = (   0.0000000   0.0000000   0.0000000  )
        10        Pb     tau(  10) = (   0.0000000   0.5000000   0.0000000  )
        11        Pb     tau(  11) = (   0.5000000   0.0000000   0.0000000  )
        12        Pb     tau(  12) = (   0.0000000   0.0000000   0.5000000  )
        13        Pb     tau(  13) = (   0.0000000   0.5000000   0.5000000  )
        14        Pb     tau(  14) = (   0.5000000   0.5000000   0.0000000  )
        15        Pb     tau(  15) = (   0.5000000   0.0000000   0.5000000  )
        16        Pb     tau(  16) = (   0.5000000   0.5000000   0.5000000  )
        17        I      tau(  17) = (   0.0000000   0.2500000   0.0000000  )
        18        I      tau(  18) = (   0.0000000   0.7500000   0.0000000  )
        19        I      tau(  19) = (   0.2500000   0.0000000   0.0000000  )
        20        I      tau(  20) = (   0.7500000   0.0000000   0.0000000  )
        21        I      tau(  21) = (   0.0000000   0.0000000   0.7500000  )
        22        I      tau(  22) = (   0.0000000   0.0000000   0.2500000  )
        23        I      tau(  23) = (   0.5000000   0.0000000   0.7500000  )
        24        I      tau(  24) = (   0.5000000   0.0000000   0.2500000  )
        25        I      tau(  25) = (   0.7500000   0.5000000   0.0000000  )
        26        I      tau(  26) = (   0.2500000   0.5000000   0.0000000  )
        27        I      tau(  27) = (   0.0000000   0.7500000   0.5000000  )
        28        I      tau(  28) = (   0.0000000   0.2500000   0.5000000  )
        29        I      tau(  29) = (   0.0000000   0.5000000   0.2500000  )
        30        I      tau(  30) = (   0.0000000   0.5000000   0.7500000  )
        31        I      tau(  31) = (   0.5000000   0.7500000   0.0000000  )
        32        I      tau(  32) = (   0.5000000   0.2500000   0.0000000  )
        33        I      tau(  33) = (   0.7500000   0.0000000   0.5000000  )
        34        I      tau(  34) = (   0.2500000   0.0000000   0.5000000  )
        35        I      tau(  35) = (   0.7500000   0.5000000   0.5000000  )
        36        I      tau(  36) = (   0.2500000   0.5000000   0.5000000  )
        37        I      tau(  37) = (   0.5000000   0.5000000   0.2500000  )
        38        I      tau(  38) = (   0.5000000   0.5000000   0.7500000  )
        39        I      tau(  39) = (   0.5000000   0.7500000   0.5000000  )
        40        I      tau(  40) = (   0.5000000   0.2500000   0.5000000  )

   Crystallographic axes

     site n.     atom                  positions (cryst. coord.)
         1        Cs     tau(   1) = (  0.7500000  0.7500000  0.7500000  )
         2        Cs     tau(   2) = (  0.2500000  0.7500000  0.2500000  )
         3        Cs     tau(   3) = (  0.7500000  0.2500000  0.2500000  )
         4        Cs     tau(   4) = (  0.2500000  0.2500000  0.7500000  )
         5        Cs     tau(   5) = (  0.7500000  0.7500000  0.2500000  )
         6        Cs     tau(   6) = (  0.7500000  0.2500000  0.7500000  )
         7        Cs     tau(   7) = (  0.2500000  0.7500000  0.7500000  )
         8        Cs     tau(   8) = (  0.2500000  0.2500000  0.2500000  )
         9        Zn     tau(   9) = (  0.0000000  0.0000000  0.0000000  )
        10        Pb     tau(  10) = (  0.0000000  0.5000000  0.0000000  )
        11        Pb     tau(  11) = (  0.5000000  0.0000000  0.0000000  )
        12        Pb     tau(  12) = (  0.0000000  0.0000000  0.5000000  )
        13        Pb     tau(  13) = (  0.0000000  0.5000000  0.5000000  )
        14        Pb     tau(  14) = (  0.5000000  0.5000000  0.0000000  )
        15        Pb     tau(  15) = (  0.5000000  0.0000000  0.5000000  )
        16        Pb     tau(  16) = (  0.5000000  0.5000000  0.5000000  )
        17        I      tau(  17) = (  0.0000000  0.2500000  0.0000000  )
        18        I      tau(  18) = (  0.0000000  0.7500000  0.0000000  )
        19        I      tau(  19) = (  0.2500000  0.0000000  0.0000000  )
        20        I      tau(  20) = (  0.7500000  0.0000000  0.0000000  )
        21        I      tau(  21) = (  0.0000000  0.0000000  0.7500000  )
        22        I      tau(  22) = (  0.0000000  0.0000000  0.2500000  )
        23        I      tau(  23) = (  0.5000000  0.0000000  0.7500000  )
        24        I      tau(  24) = (  0.5000000  0.0000000  0.2500000  )
        25        I      tau(  25) = (  0.7500000  0.5000000  0.0000000  )
        26        I      tau(  26) = (  0.2500000  0.5000000  0.0000000  )
        27        I      tau(  27) = (  0.0000000  0.7500000  0.5000000  )
        28        I      tau(  28) = (  0.0000000  0.2500000  0.5000000  )
        29        I      tau(  29) = (  0.0000000  0.5000000  0.2500000  )
        30        I      tau(  30) = (  0.0000000  0.5000000  0.7500000  )
        31        I      tau(  31) = (  0.5000000  0.7500000  0.0000000  )
        32        I      tau(  32) = (  0.5000000  0.2500000  0.0000000  )
        33        I      tau(  33) = (  0.7500000  0.0000000  0.5000000  )
        34        I      tau(  34) = (  0.2500000  0.0000000  0.5000000  )
        35        I      tau(  35) = (  0.7500000  0.5000000  0.5000000  )
        36        I      tau(  36) = (  0.2500000  0.5000000  0.5000000  )
        37        I      tau(  37) = (  0.5000000  0.5000000  0.2500000  )
        38        I      tau(  38) = (  0.5000000  0.5000000  0.7500000  )
        39        I      tau(  39) = (  0.5000000  0.7500000  0.5000000  )
        40        I      tau(  40) = (  0.5000000  0.2500000  0.5000000  )

     number of k points=    10  Marzari-Vanderbilt smearing, width (Ry)=  0.1470
                       cart. coord. in units 2pi/alat
        k(    1) = (   0.0000000   0.0000000   0.0000000), wk =   0.0312500
        k(    2) = (   0.0000000   0.0000000   0.2500000), wk =   0.1875000
        k(    3) = (   0.0000000   0.0000000  -0.5000000), wk =   0.0937500
        k(    4) = (   0.0000000   0.2500000   0.2500000), wk =   0.3750000
        k(    5) = (   0.0000000   0.2500000  -0.5000000), wk =   0.3750000
        k(    6) = (   0.0000000  -0.5000000  -0.5000000), wk =   0.0937500
        k(    7) = (   0.2500000   0.2500000   0.2500000), wk =   0.2500000
        k(    8) = (   0.2500000   0.2500000  -0.5000000), wk =   0.3750000
        k(    9) = (   0.2500000  -0.5000000  -0.5000000), wk =   0.1875000
        k(   10) = (  -0.5000000  -0.5000000  -0.5000000), wk =   0.0312500

                       cryst. coord.
        k(    1) = (   0.0000000   0.0000000   0.0000000), wk =   0.0312500
        k(    2) = (   0.0000000   0.0000000   0.2500000), wk =   0.1875000
        k(    3) = (   0.0000000   0.0000000  -0.5000000), wk =   0.0937500
        k(    4) = (   0.0000000   0.2500000   0.2500000), wk =   0.3750000
        k(    5) = (   0.0000000   0.2500000  -0.5000000), wk =   0.3750000
        k(    6) = (   0.0000000  -0.5000000  -0.5000000), wk =   0.0937500
        k(    7) = (   0.2500000   0.2500000   0.2500000), wk =   0.2500000
        k(    8) = (   0.2500000   0.2500000  -0.5000000), wk =   0.3750000
        k(    9) = (   0.2500000  -0.5000000  -0.5000000), wk =   0.1875000
        k(   10) = (  -0.5000000  -0.5000000  -0.5000000), wk =   0.0312500

     Dense  grid:  1305079 G-vectors     FFT dimensions: ( 135, 135, 135)

     Smooth grid:   461335 G-vectors     FFT dimensions: (  96,  96,  96)

     Dynamical RAM for                 wfc:      47.08 MB

     Dynamical RAM for     wfc (w. buffer):     517.85 MB

     Dynamical RAM for           str. fact:      19.91 MB

     Dynamical RAM for           local pot:       0.00 MB

     Dynamical RAM for          nlocal pot:     105.59 MB

     Dynamical RAM for                qrad:      11.49 MB

     Dynamical RAM for          rho,v,vnew:      29.12 MB

     Dynamical RAM for               rhoin:       9.71 MB

     Dynamical RAM for            rho*nmix:      79.66 MB

     Dynamical RAM for           G-vectors:      19.55 MB

     Dynamical RAM for          h,s,v(r/c):       8.39 MB

     Dynamical RAM for          <psi|beta>:       1.57 MB

     Dynamical RAM for                 psi:      94.15 MB

     Dynamical RAM for                hpsi:      94.15 MB

     Dynamical RAM for                spsi:      94.15 MB

     Dynamical RAM for      wfcinit/wfcrot:      95.20 MB

     Dynamical RAM for           addusdens:    1045.48 MB

     Dynamical RAM for          addusforce:    1277.08 MB

     Dynamical RAM for         addusstress:    1000.68 MB

     Estimated static dynamical RAM per process >     761.75 MB

     Estimated max dynamical RAM per process >       2.07 GB

     Estimated total dynamical RAM >       8.28 GB

     Initial potential from superposition of free atoms

     starting charge     357.6665, renormalised to     356.0000
     Starting wfcs are  276 randomized atomic wfcs
     Checking if some PAW data can be deallocated... 
       PAW data deallocated on    1 nodes for type:  2
       PAW data deallocated on    2 nodes for type:  3

     total cpu time spent up to now is       36.4 secs

     Self-consistent Calculation
[tb_dev] Currently allocated     8.88E+00 Mbytes, locked:    0 /   6
[tb_pin] Currently allocated     0.00E+00 Mbytes, locked:    0 /   0

     iteration #  1     ecut=    40.00 Ry     beta= 0.70
     Davidson diagonalization with overlap

---- Real-time Memory Report at c_bands before calling an iterative solver
          1547 MiB given to the printing process from OS
             0 MiB allocation reported by mallinfo(arena+hblkhd)
         21256 MiB available memory on the node where the printing process lives
     GPU memory used/free/total (MiB): 8337 / 3591 / 11928
------------------
     ethr =  1.00E-02,  avg # of iterations =  3.2

     Threshold (ethr) on eigenvalues was too large:
     Diagonalizing with lowered threshold

     Davidson diagonalization with overlap

---- Real-time Memory Report at c_bands before calling an iterative solver
          1585 MiB given to the printing process from OS
             0 MiB allocation reported by mallinfo(arena+hblkhd)
         21157 MiB available memory on the node where the printing process lives
     GPU memory used/free/total (MiB): 8721 / 3207 / 11928
------------------
     ethr =  1.61E-04,  avg # of iterations =  9.3

     total cpu time spent up to now is      235.9 secs

     total energy              =  -16155.75786795 Ry
     estimated scf accuracy    <       0.48350102 Ry
[tb_dev] Currently allocated     3.05E-04 Mbytes, locked:    0 /   2
[tb_pin] Currently allocated     0.00E+00 Mbytes, locked:    0 /   0

     iteration #  2     ecut=    40.00 Ry     beta= 0.70
     Davidson diagonalization with overlap

---- Real-time Memory Report at c_bands before calling an iterative solver
          1603 MiB given to the printing process from OS
             0 MiB allocation reported by mallinfo(arena+hblkhd)
         21059 MiB available memory on the node where the printing process lives
     GPU memory used/free/total (MiB): 8857 / 3071 / 11928
------------------
     c_bands:  1 eigenvalues not converged
     ethr =  1.36E-04,  avg # of iterations =  5.4

     total cpu time spent up to now is      342.0 secs

     total energy              =  -16155.75139175 Ry
     estimated scf accuracy    <       0.49799537 Ry
[tb_dev] Currently allocated     3.05E-04 Mbytes, locked:    0 /   2
[tb_pin] Currently allocated     0.00E+00 Mbytes, locked:    0 /   0

     iteration #  3     ecut=    40.00 Ry     beta= 0.70
     Davidson diagonalization with overlap

---- Real-time Memory Report at c_bands before calling an iterative solver
          1607 MiB given to the printing process from OS
             0 MiB allocation reported by mallinfo(arena+hblkhd)
         21039 MiB available memory on the node where the printing process lives
     GPU memory used/free/total (MiB): 8857 / 3071 / 11928
------------------
     ethr =  1.36E-04,  avg # of iterations = 12.4

     total cpu time spent up to now is      467.4 secs

     total energy              =  -16155.68825497 Ry
     estimated scf accuracy    <       3.39494027 Ry
[tb_dev] Currently allocated     3.05E-04 Mbytes, locked:    0 /   2
[tb_pin] Currently allocated     0.00E+00 Mbytes, locked:    0 /   0

     iteration #  4     ecut=    40.00 Ry     beta= 0.70
     Davidson diagonalization with overlap

---- Real-time Memory Report at c_bands before calling an iterative solver
          1610 MiB given to the printing process from OS
             0 MiB allocation reported by mallinfo(arena+hblkhd)
         21028 MiB available memory on the node where the printing process lives
     GPU memory used/free/total (MiB): 8857 / 3071 / 11928
------------------
     ethr =  1.36E-04,  avg # of iterations =  7.2

     total cpu time spent up to now is      570.3 secs

     total energy              =  -16155.91380114 Ry
     estimated scf accuracy    <       0.08344147 Ry
[tb_dev] Currently allocated     3.05E-04 Mbytes, locked:    0 /   2
[tb_pin] Currently allocated     0.00E+00 Mbytes, locked:    0 /   0

     iteration #  5     ecut=    40.00 Ry     beta= 0.70
     Davidson diagonalization with overlap

---- Real-time Memory Report at c_bands before calling an iterative solver
          1617 MiB given to the printing process from OS
             0 MiB allocation reported by mallinfo(arena+hblkhd)
         21017 MiB available memory on the node where the printing process lives
     GPU memory used/free/total (MiB): 8857 / 3071 / 11928
------------------
     c_bands:  2 eigenvalues not converged
     ethr =  2.34E-05,  avg # of iterations = 13.7

     total cpu time spent up to now is      690.1 secs

     total energy              =  -16155.92979625 Ry
     estimated scf accuracy    <       0.04753155 Ry
[tb_dev] Currently allocated     3.05E-04 Mbytes, locked:    0 /   2
[tb_pin] Currently allocated     0.00E+00 Mbytes, locked:    0 /   0

     iteration #  6     ecut=    40.00 Ry     beta= 0.70
     Davidson diagonalization with overlap

---- Real-time Memory Report at c_bands before calling an iterative solver
          1621 MiB given to the printing process from OS
             0 MiB allocation reported by mallinfo(arena+hblkhd)
         20997 MiB available memory on the node where the printing process lives
     GPU memory used/free/total (MiB): 8861 / 3067 / 11928
------------------
     ethr =  1.34E-05,  avg # of iterations =  3.2

     total cpu time spent up to now is      775.2 secs

     total energy              =  -16155.93582419 Ry
     estimated scf accuracy    <       0.00052893 Ry
[tb_dev] Currently allocated     3.05E-04 Mbytes, locked:    0 /   2
[tb_pin] Currently allocated     0.00E+00 Mbytes, locked:    0 /   0

     iteration #  7     ecut=    40.00 Ry     beta= 0.70
     Davidson diagonalization with overlap

---- Real-time Memory Report at c_bands before calling an iterative solver
          1624 MiB given to the printing process from OS
             0 MiB allocation reported by mallinfo(arena+hblkhd)
         21016 MiB available memory on the node where the printing process lives
     GPU memory used/free/total (MiB): 8861 / 3067 / 11928
------------------
     c_bands:  1 eigenvalues not converged
     c_bands:  3 eigenvalues not converged
     c_bands:  1 eigenvalues not converged
     ethr =  1.49E-07,  avg # of iterations = 14.4

     total cpu time spent up to now is      975.1 secs

     total energy              =  -16155.93721589 Ry
     estimated scf accuracy    <       0.00040271 Ry
[tb_dev] Currently allocated     3.05E-04 Mbytes, locked:    0 /   2
[tb_pin] Currently allocated     0.00E+00 Mbytes, locked:    0 /   0

     iteration #  8     ecut=    40.00 Ry     beta= 0.70
     Davidson diagonalization with overlap

---- Real-time Memory Report at c_bands before calling an iterative solver
          1635 MiB given to the printing process from OS
             0 MiB allocation reported by mallinfo(arena+hblkhd)
         20984 MiB available memory on the node where the printing process lives
     GPU memory used/free/total (MiB): 8861 / 3067 / 11928
------------------
     ethr =  1.13E-07,  avg # of iterations =  2.9

     total cpu time spent up to now is     1063.0 secs

     total energy              =  -16155.93726393 Ry
     estimated scf accuracy    <       0.00005320 Ry
[tb_dev] Currently allocated     3.05E-04 Mbytes, locked:    0 /   2
[tb_pin] Currently allocated     0.00E+00 Mbytes, locked:    0 /   0

     iteration #  9     ecut=    40.00 Ry     beta= 0.70
     Davidson diagonalization with overlap

---- Real-time Memory Report at c_bands before calling an iterative solver
          1637 MiB given to the printing process from OS
             0 MiB allocation reported by mallinfo(arena+hblkhd)
         20962 MiB available memory on the node where the printing process lives
     GPU memory used/free/total (MiB): 8861 / 3067 / 11928
------------------
     ethr =  1.49E-08,  avg # of iterations =  4.5

     total cpu time spent up to now is     1171.8 secs

     total energy              =  -16155.93726945 Ry
     estimated scf accuracy    <       0.00003716 Ry
[tb_dev] Currently allocated     3.05E-04 Mbytes, locked:    0 /   2
[tb_pin] Currently allocated     0.00E+00 Mbytes, locked:    0 /   0

     iteration # 10     ecut=    40.00 Ry     beta= 0.70
     Davidson diagonalization with overlap

---- Real-time Memory Report at c_bands before calling an iterative solver
          1642 MiB given to the printing process from OS
             0 MiB allocation reported by mallinfo(arena+hblkhd)
         20961 MiB available memory on the node where the printing process lives
     GPU memory used/free/total (MiB): 8861 / 3067 / 11928
------------------
     ethr =  1.04E-08,  avg # of iterations =  3.4

     total cpu time spent up to now is     1264.9 secs

     total energy              =  -16155.93727631 Ry
     estimated scf accuracy    <       0.00000788 Ry
[tb_dev] Currently allocated     3.05E-04 Mbytes, locked:    0 /   2
[tb_pin] Currently allocated     0.00E+00 Mbytes, locked:    0 /   0

     iteration # 11     ecut=    40.00 Ry     beta= 0.70
     Davidson diagonalization with overlap

---- Real-time Memory Report at c_bands before calling an iterative solver
          1645 MiB given to the printing process from OS
             0 MiB allocation reported by mallinfo(arena+hblkhd)
         20941 MiB available memory on the node where the printing process lives
     GPU memory used/free/total (MiB): 8861 / 3067 / 11928
------------------
     ethr =  2.21E-09,  avg # of iterations =  4.2

     total cpu time spent up to now is     1361.1 secs

     total energy              =  -16155.93727781 Ry
     estimated scf accuracy    <       0.00000042 Ry
[tb_dev] Currently allocated     3.05E-04 Mbytes, locked:    0 /   2
[tb_pin] Currently allocated     0.00E+00 Mbytes, locked:    0 /   0

     iteration # 12     ecut=    40.00 Ry     beta= 0.70
     Davidson diagonalization with overlap

---- Real-time Memory Report at c_bands before calling an iterative solver
          1645 MiB given to the printing process from OS
             0 MiB allocation reported by mallinfo(arena+hblkhd)
         20956 MiB available memory on the node where the printing process lives
     GPU memory used/free/total (MiB): 8861 / 3067 / 11928
------------------
     ethr =  1.17E-10,  avg # of iterations =  5.6

     total cpu time spent up to now is     1507.6 secs

     total energy              =  -16155.93727811 Ry
     estimated scf accuracy    <       0.00000014 Ry
[tb_dev] Currently allocated     3.05E-04 Mbytes, locked:    0 /   2
[tb_pin] Currently allocated     0.00E+00 Mbytes, locked:    0 /   0

     iteration # 13     ecut=    40.00 Ry     beta= 0.70
     Davidson diagonalization with overlap

---- Real-time Memory Report at c_bands before calling an iterative solver
          1645 MiB given to the printing process from OS
             0 MiB allocation reported by mallinfo(arena+hblkhd)
         20953 MiB available memory on the node where the printing process lives
     GPU memory used/free/total (MiB): 8861 / 3067 / 11928
------------------
     ethr =  4.01E-11,  avg # of iterations =  3.6

     total cpu time spent up to now is     1597.2 secs

     total energy              =  -16155.93727805 Ry
     estimated scf accuracy    <       0.00000074 Ry
[tb_dev] Currently allocated     3.05E-04 Mbytes, locked:    0 /   2
[tb_pin] Currently allocated     0.00E+00 Mbytes, locked:    0 /   0

     iteration # 14     ecut=    40.00 Ry     beta= 0.70
     Davidson diagonalization with overlap

---- Real-time Memory Report at c_bands before calling an iterative solver
          1645 MiB given to the printing process from OS
             0 MiB allocation reported by mallinfo(arena+hblkhd)
         20948 MiB available memory on the node where the printing process lives
     GPU memory used/free/total (MiB): 8861 / 3067 / 11928
------------------
     ethr =  4.01E-11,  avg # of iterations =  2.7

     total cpu time spent up to now is     1684.2 secs

     total energy              =  -16155.93727814 Ry
     estimated scf accuracy    <       0.00000019 Ry
[tb_dev] Currently allocated     3.05E-04 Mbytes, locked:    0 /   2
[tb_pin] Currently allocated     0.00E+00 Mbytes, locked:    0 /   0

     iteration # 15     ecut=    40.00 Ry     beta= 0.70
     Davidson diagonalization with overlap

---- Real-time Memory Report at c_bands before calling an iterative solver
          1647 MiB given to the printing process from OS
             0 MiB allocation reported by mallinfo(arena+hblkhd)
         20877 MiB available memory on the node where the printing process lives
     GPU memory used/free/total (MiB): 8861 / 3067 / 11928
------------------
     ethr =  4.01E-11,  avg # of iterations =  2.1

     total cpu time spent up to now is     1768.2 secs

     total energy              =  -16155.93727815 Ry
     estimated scf accuracy    <       0.00000013 Ry
[tb_dev] Currently allocated     3.05E-04 Mbytes, locked:    0 /   2
[tb_pin] Currently allocated     0.00E+00 Mbytes, locked:    0 /   0

     iteration # 16     ecut=    40.00 Ry     beta= 0.70
     Davidson diagonalization with overlap

---- Real-time Memory Report at c_bands before calling an iterative solver
          1647 MiB given to the printing process from OS
             0 MiB allocation reported by mallinfo(arena+hblkhd)
         20866 MiB available memory on the node where the printing process lives
     GPU memory used/free/total (MiB): 8861 / 3067 / 11928
------------------
     ethr =  3.55E-11,  avg # of iterations =  1.7

     total cpu time spent up to now is     1846.0 secs

     total energy              =  -16155.93727816 Ry
     estimated scf accuracy    <          5.5E-09 Ry
[tb_dev] Currently allocated     3.05E-04 Mbytes, locked:    0 /   2
[tb_pin] Currently allocated     0.00E+00 Mbytes, locked:    0 /   0

     iteration # 17     ecut=    40.00 Ry     beta= 0.70
     Davidson diagonalization with overlap

---- Real-time Memory Report at c_bands before calling an iterative solver
          1647 MiB given to the printing process from OS
             0 MiB allocation reported by mallinfo(arena+hblkhd)
         20865 MiB available memory on the node where the printing process lives
     GPU memory used/free/total (MiB): 8861 / 3067 / 11928
------------------
     ethr =  1.54E-12,  avg # of iterations =  5.4

     total cpu time spent up to now is     1958.3 secs

     total energy              =  -16155.93727816 Ry
     estimated scf accuracy    <          8.8E-09 Ry
[tb_dev] Currently allocated     3.05E-04 Mbytes, locked:    0 /   2
[tb_pin] Currently allocated     0.00E+00 Mbytes, locked:    0 /   0

     iteration # 18     ecut=    40.00 Ry     beta= 0.70
     Davidson diagonalization with overlap

---- Real-time Memory Report at c_bands before calling an iterative solver
          1647 MiB given to the printing process from OS
             0 MiB allocation reported by mallinfo(arena+hblkhd)
         20871 MiB available memory on the node where the printing process lives
     GPU memory used/free/total (MiB): 8861 / 3067 / 11928
------------------
     ethr =  1.54E-12,  avg # of iterations =  2.0

     total cpu time spent up to now is     2040.0 secs

     total energy              =  -16155.93727816 Ry
     estimated scf accuracy    <          2.7E-09 Ry
[tb_dev] Currently allocated     3.05E-04 Mbytes, locked:    0 /   2
[tb_pin] Currently allocated     0.00E+00 Mbytes, locked:    0 /   0

     iteration # 19     ecut=    40.00 Ry     beta= 0.70
     Davidson diagonalization with overlap

---- Real-time Memory Report at c_bands before calling an iterative solver
          1647 MiB given to the printing process from OS
             0 MiB allocation reported by mallinfo(arena+hblkhd)
         20865 MiB available memory on the node where the printing process lives
     GPU memory used/free/total (MiB): 8861 / 3067 / 11928
------------------
     ethr =  7.66E-13,  avg # of iterations =  4.0

     total cpu time spent up to now is     2136.9 secs

     End of self-consistent calculation

          k = 0.0000 0.0000 0.0000 ( 57747 PWs)   bands (ev):

  -122.3158 -76.4900 -76.4900 -76.4900 -18.2216 -18.2213 -18.2213 -18.2213
   -18.2210 -18.2210 -18.2210 -18.2207 -13.6151 -13.6151 -13.6103 -13.6075
   -13.6075 -13.6056 -13.5973 -13.5973 -13.5837 -13.5837 -13.5814 -13.5765
   -13.5756 -13.5756 -13.5487 -13.5487 -13.5487 -13.5481 -13.5481 -13.5481
   -13.5479 -13.5479 -13.5479 -13.5479 -13.5479 -13.5479 -13.5300 -13.5300
   -13.5300 -13.5227 -13.5227 -13.5227 -13.5226 -13.5226 -13.5226  -9.3575
    -9.1705  -9.1705  -9.0764  -8.9049  -8.9049  -8.8573  -8.8573  -8.8573
    -8.8565  -8.8565  -8.8565  -8.8523  -8.8523  -8.8523  -8.7772  -8.7441
    -8.7441  -8.7441  -8.5991  -8.5991  -8.5969  -8.5712  -8.5712  -5.4274
    -5.0260  -5.0260  -5.0260  -5.0105  -5.0105  -5.0105  -5.0104  -5.0104
    -5.0104  -5.0069  -5.0069  -5.0069  -5.0053  -5.0053  -5.0053  -5.0028
    -5.0028  -5.0028  -5.0009  -5.0009  -5.0009  -5.0009  -4.9974  -4.9971
    -4.9339  -4.9339  -4.6739  -4.3721  -4.3721  -3.9193  -3.2445  -3.2445
    -3.2203  -3.2203  -3.2203  -0.5858  -0.5858  -0.5858  -0.5249  -0.5005
    -0.5005  -0.5005  -0.4143  -0.4143  -0.4143  -0.0270  -0.0270  -0.0270
     0.6382   0.6382   0.6382   0.7903   0.7903   0.7903   0.9629   0.9629
     0.9629   1.2714   1.2714   1.2714   1.3113   1.3113   1.3113   1.3544
     1.3544   1.3544   1.3616   1.3616   1.3616   1.4163   1.4163   1.4163
     1.4482   1.4482   1.4482   1.4780   1.4780   1.4780   1.5335   1.5365
     1.5365   1.6083   1.6083   1.6083   1.6576   1.6576   1.6576   1.6655
     1.6655   1.6655   1.6703   1.6703   1.7792   1.7792   1.7792   2.1284
     2.1284   2.1284   2.1485   2.1485   2.1678   2.1678   2.1678   2.2198
     2.6158   2.6158   2.9129   4.5500   4.5500   4.5500   4.5575   4.9121
     4.9121   4.9121   5.1108   5.1108   5.1108   5.8803   5.8803   5.8803
     6.1953   7.0296   7.2054   7.2054   7.6207   7.6207   7.6207   7.6621
     7.6621   7.6621   7.8863   7.8864   7.9050   7.9855   7.9855   7.9855
     8.0793   8.0793   8.0793   8.2061   8.2061   8.2061

     occupation numbers 
     1.0000   1.0000   1.0000   1.0000   1.0000   1.0000   1.0000   1.0000
     1.0000   1.0000   1.0000   1.0000   1.0000   1.0000   1.0000   1.0000
     1.0000   1.0000   1.0000   1.0000   1.0000   1.0000   1.0000   1.0000
     1.0000   1.0000   1.0000   1.0000   1.0000   1.0000   1.0000   1.0000
     1.0000   1.0000   1.0000   1.0000   1.0000   1.0000   1.0000   1.0000
     1.0000   1.0000   1.0000   1.0000   1.0000   1.0000   1.0000   1.0000
     1.0000   1.0000   1.0000   1.0000   1.0000   1.0000   1.0000   1.0000
     1.0000   1.0000   1.0000   1.0000   1.0000   1.0000   1.0000   1.0000
     1.0000   1.0000   1.0000   1.0000   1.0000   1.0000   1.0000   1.0000
     1.0000   1.0000   1.0000   1.0000   1.0000   1.0000   1.0000   1.0000
     1.0000   1.0000   1.0000   1.0000   1.0000   1.0000   1.0000   1.0000
     1.0000   1.0000   1.0000   1.0000   1.0000   1.0000   1.0000   1.0000
     1.0000   1.0000   1.0000   1.0000   1.0000   1.0001   1.0005   1.0005
     1.0005   1.0005   1.0005   1.0494   1.0494   1.0494   1.0522   1.0534
     1.0534   1.0534   1.0574   1.0574   1.0574   1.0742   1.0742   1.0742
     1.0797   1.0797   1.0797   1.0728   1.0728   1.0728   1.0598   1.0598
     1.0598   1.0210   1.0210   1.0210   1.0145   1.0145   1.0145   1.0069
     1.0069   1.0069   1.0057   1.0057   1.0057   0.9954   0.9954   0.9954
     0.9891   0.9891   0.9891   0.9830   0.9830   0.9830   0.9712   0.9705
     0.9705   0.9541   0.9541   0.9541   0.9421   0.9421   0.9421   0.9401
     0.9401   0.9401   0.9389   0.9389   0.9104   0.9104   0.9104   0.8034
     0.8034   0.8034   0.7966   0.7966   0.7900   0.7900   0.7900   0.7721
     0.6274   0.6274   0.5159   0.0887   0.0887   0.0887   0.0878   0.0510
     0.0510   0.0510   0.0366   0.0366   0.0366   0.0085   0.0085   0.0085
     0.0043   0.0006   0.0004   0.0004   0.0001   0.0001   0.0001   0.0001
     0.0001   0.0001   0.0000   0.0000   0.0000   0.0000   0.0000   0.0000
     0.0000   0.0000   0.0000   0.0000   0.0000   0.0000

          k = 0.0000 0.0000 0.2500 ( 57616 PWs)   bands (ev):

  -122.3158 -76.4900 -76.4900 -76.4900 -18.2215 -18.2213 -18.2212 -18.2212
   -18.2210 -18.2210 -18.2210 -18.2208 -13.6150 -13.6133 -13.6095 -13.6075
   -13.6067 -13.6055 -13.5986 -13.5970 -13.5848 -13.5839 -13.5822 -13.5766
   -13.5758 -13.5757 -13.5487 -13.5486 -13.5486 -13.5481 -13.5480 -13.5480
   -13.5479 -13.5479 -13.5479 -13.5479 -13.5479 -13.5479 -13.5299 -13.5299
   -13.5299 -13.5227 -13.5227 -13.5227 -13.5226 -13.5226 -13.5226  -9.3382
    -9.2010  -9.1494  -9.0824  -8.9955  -8.9350  -8.8609  -8.8572  -8.8572
    -8.8560  -8.8560  -8.8529  -8.8529  -8.8029  -8.7802  -8.7659  -8.7441
    -8.7441  -8.6985  -8.6245  -8.6153  -8.5987  -8.5871  -8.5737  -5.3623
    -5.0236  -5.0236  -5.0222  -5.0122  -5.0122  -5.0116  -5.0114  -5.0097
    -5.0097  -5.0069  -5.0068  -5.0068  -5.0060  -5.0060  -5.0046  -5.0042
    -5.0036  -5.0036  -5.0031  -5.0026  -5.0022  -5.0015  -5.0000  -4.9987
    -4.9783  -4.8626  -4.6777  -4.4708  -4.3535  -4.0075  -3.2520  -3.2451
    -3.2203  -3.2203  -3.2203  -0.7236  -0.5746  -0.5746  -0.5007  -0.5007
    -0.4243  -0.4243  -0.3218  -0.2587  -0.1577  -0.0363  -0.0363   0.3052
     0.6573   0.6775   0.6775   0.7701   0.8117   0.8260   0.8260   0.9078
     0.9078   0.9884   1.0824   1.1011   1.1011   1.2749   1.2749   1.3186
     1.3186   1.3289   1.3610   1.3659   1.4020   1.4020   1.4095   1.4437
     1.4673   1.4673   1.4934   1.5361   1.5627   1.5831   1.5831   1.5901
     1.5901   1.5909   1.6222   1.6226   1.6226   1.6472   1.6561   1.6605
     1.6605   1.6665   1.6896   1.6896   1.7583   1.7583   1.7640   1.9607
     2.0526   2.0526   2.0936   2.0936   2.1289   2.1576   2.1673   2.2061
     2.4283   2.5329   2.7388   4.2736   4.6115   4.6115   4.9041   4.9041
     5.0983   5.0983   5.2242   5.4944   5.6808   5.8682   5.8682   6.3440
     6.3993   7.1443   7.2874   7.3009   7.3295   7.4445   7.6698   7.7294
     7.7294   7.7383   7.7383   7.7533   7.8010   7.9215   7.9314   7.9918
     7.9918   8.0110   8.0604   8.0605   8.0770   8.1402

     occupation numbers 
     1.0000   1.0000   1.0000   1.0000   1.0000   1.0000   1.0000   1.0000
     1.0000   1.0000   1.0000   1.0000   1.0000   1.0000   1.0000   1.0000
     1.0000   1.0000   1.0000   1.0000   1.0000   1.0000   1.0000   1.0000
     1.0000   1.0000   1.0000   1.0000   1.0000   1.0000   1.0000   1.0000
     1.0000   1.0000   1.0000   1.0000   1.0000   1.0000   1.0000   1.0000
     1.0000   1.0000   1.0000   1.0000   1.0000   1.0000   1.0000   1.0000
     1.0000   1.0000   1.0000   1.0000   1.0000   1.0000   1.0000   1.0000
     1.0000   1.0000   1.0000   1.0000   1.0000   1.0000   1.0000   1.0000
     1.0000   1.0000   1.0000   1.0000   1.0000   1.0000   1.0000   1.0000
     1.0000   1.0000   1.0000   1.0000   1.0000   1.0000   1.0000   1.0000
     1.0000   1.0000   1.0000   1.0000   1.0000   1.0000   1.0000   1.0000
     1.0000   1.0000   1.0000   1.0000   1.0000   1.0000   1.0000   1.0000
     1.0000   1.0000   1.0000   1.0000   1.0000   1.0001   1.0005   1.0005
     1.0005   1.0005   1.0005   1.0431   1.0499   1.0499   1.0534   1.0534
     1.0570   1.0570   1.0618   1.0646   1.0691   1.0739   1.0739   1.0827
     1.0790   1.0783   1.0783   1.0739   1.0715   1.0706   1.0706   1.0646
     1.0646   1.0574   1.0473   1.0450   1.0450   1.0205   1.0205   1.0132
     1.0132   1.0115   1.0058   1.0049   0.9982   0.9982   0.9967   0.9900
     0.9853   0.9853   0.9798   0.9706   0.9646   0.9600   0.9600   0.9583
     0.9583   0.9582   0.9507   0.9507   0.9507   0.9447   0.9425   0.9414
     0.9414   0.9399   0.9341   0.9341   0.9160   0.9160   0.9145   0.8574
     0.8284   0.8284   0.8149   0.8149   0.8032   0.7935   0.7902   0.7769
     0.6974   0.6585   0.5811   0.1300   0.0811   0.0811   0.0516   0.0516
     0.0374   0.0374   0.0301   0.0183   0.0128   0.0087   0.0087   0.0031
     0.0027   0.0004   0.0003   0.0003   0.0003   0.0002   0.0001   0.0001
     0.0001   0.0001   0.0001   0.0001   0.0001   0.0000   0.0000   0.0000
     0.0000   0.0000   0.0000   0.0000   0.0000   0.0000

          k = 0.0000 0.0000-0.5000 ( 57624 PWs)   bands (ev):

  -122.3158 -76.4900 -76.4900 -76.4900 -18.2214 -18.2214 -18.2211 -18.2211
   -18.2211 -18.2211 -18.2209 -18.2209 -13.6149 -13.6107 -13.6085 -13.6078
   -13.6064 -13.6056 -13.6000 -13.5965 -13.5860 -13.5843 -13.5829 -13.5767
   -13.5759 -13.5759 -13.5487 -13.5486 -13.5486 -13.5480 -13.5480 -13.5480
   -13.5480 -13.5480 -13.5479 -13.5479 -13.5479 -13.5479 -13.5299 -13.5299
   -13.5299 -13.5227 -13.5227 -13.5227 -13.5227 -13.5227 -13.5226  -9.3012
    -9.2528  -9.0935  -9.0829  -9.0750  -8.9648  -8.8612  -8.8571  -8.8571
    -8.8549  -8.8549  -8.8540  -8.8540  -8.7972  -8.7441  -8.7441  -8.6971
    -8.6955  -8.6778  -8.6702  -8.6441  -8.6221  -8.5987  -8.5750  -5.2481
    -5.0995  -5.0178  -5.0178  -5.0178  -5.0178  -5.0132  -5.0130  -5.0082
    -5.0080  -5.0079  -5.0079  -5.0079  -5.0079  -5.0066  -5.0054  -5.0054
    -5.0053  -5.0053  -5.0046  -5.0031  -5.0031  -5.0024  -5.0006  -5.0005
    -4.9965  -4.6895  -4.6719  -4.6695  -4.3078  -4.1203  -3.2596  -3.2456
    -3.2203  -3.2203  -3.2203  -0.8264  -0.5598  -0.5598  -0.5043  -0.5043
    -0.4342  -0.4342  -0.0456  -0.0456   0.2581   0.2744   0.3385   0.3432
     0.4422   0.4550   0.6893   0.7370   0.7647   0.7824   0.7824   0.7834
     0.7834   0.9197   0.9197   0.9460   0.9460   0.9501   1.2518   1.2518
     1.2992   1.2992   1.3703   1.3708   1.4000   1.4386   1.4980   1.4980
     1.5024   1.5024   1.5266   1.5361   1.5465   1.5465   1.5509   1.5509
     1.5512   1.5872   1.6246   1.6279   1.6445   1.6638   1.6739   1.6739
     1.7333   1.7333   1.7560   1.7958   1.8480   1.8480   1.8510   1.8510
     1.9075   1.9075   1.9175   1.9175   2.1294   2.1668   2.1748   2.2216
     2.2999   2.4271   2.6755   4.1186   4.6977   4.6977   4.8626   4.8626
     5.0949   5.0949   5.8547   5.8547   6.3616   6.3861   6.6437   6.6607
     6.7396   6.7581   6.7856   6.8516   7.0958   7.4558   7.4797   7.5101
     7.5364   7.6597   7.6679   7.7921   7.8497   7.9445   7.9445   7.9575
     7.9575   7.9935   7.9936   8.0012   8.0012   8.0559

     occupation numbers 
     1.0000   1.0000   1.0000   1.0000   1.0000   1.0000   1.0000   1.0000
     1.0000   1.0000   1.0000   1.0000   1.0000   1.0000   1.0000   1.0000
     1.0000   1.0000   1.0000   1.0000   1.0000   1.0000   1.0000   1.0000
     1.0000   1.0000   1.0000   1.0000   1.0000   1.0000   1.0000   1.0000
     1.0000   1.0000   1.0000   1.0000   1.0000   1.0000   1.0000   1.0000
     1.0000   1.0000   1.0000   1.0000   1.0000   1.0000   1.0000   1.0000
     1.0000   1.0000   1.0000   1.0000   1.0000   1.0000   1.0000   1.0000
     1.0000   1.0000   1.0000   1.0000   1.0000   1.0000   1.0000   1.0000
     1.0000   1.0000   1.0000   1.0000   1.0000   1.0000   1.0000   1.0000
     1.0000   1.0000   1.0000   1.0000   1.0000   1.0000   1.0000   1.0000
     1.0000   1.0000   1.0000   1.0000   1.0000   1.0000   1.0000   1.0000
     1.0000   1.0000   1.0000   1.0000   1.0000   1.0000   1.0000   1.0000
     1.0000   1.0000   1.0000   1.0000   1.0000   1.0000   1.0005   1.0005
     1.0005   1.0005   1.0005   1.0386   1.0506   1.0506   1.0532   1.0532
     1.0565   1.0565   1.0736   1.0736   1.0821   1.0823   1.0830   1.0831
     1.0832   1.0832   1.0778   1.0757   1.0742   1.0733   1.0733   1.0732
     1.0732   1.0636   1.0636   1.0613   1.0613   1.0610   1.0241   1.0241
     1.0165   1.0165   1.0041   1.0040   0.9985   0.9911   0.9789   0.9789
     0.9779   0.9779   0.9727   0.9706   0.9683   0.9683   0.9673   0.9673
     0.9672   0.9590   0.9502   0.9494   0.9453   0.9406   0.9380   0.9380
     0.9227   0.9227   0.9167   0.9058   0.8910   0.8910   0.8902   0.8902
     0.8736   0.8736   0.8706   0.8706   0.8030   0.7904   0.7876   0.7715
     0.7439   0.6978   0.6050   0.1586   0.0713   0.0713   0.0552   0.0552
     0.0376   0.0376   0.0090   0.0090   0.0030   0.0028   0.0015   0.0015
     0.0012   0.0011   0.0011   0.0009   0.0005   0.0002   0.0002   0.0002
     0.0001   0.0001   0.0001   0.0001   0.0001   0.0000   0.0000   0.0000
     0.0000   0.0000   0.0000   0.0000   0.0000   0.0000

          k = 0.0000 0.2500 0.2500 ( 57594 PWs)   bands (ev):

  -122.3158 -76.4900 -76.4900 -76.4900 -18.2215 -18.2213 -18.2213 -18.2212
   -18.2211 -18.2210 -18.2210 -18.2208 -13.6140 -13.6122 -13.6087 -13.6072
   -13.6062 -13.6053 -13.5995 -13.5975 -13.5853 -13.5844 -13.5831 -13.5767
   -13.5760 -13.5760 -13.5486 -13.5486 -13.5486 -13.5480 -13.5480 -13.5480
   -13.5480 -13.5479 -13.5479 -13.5479 -13.5479 -13.5479 -13.5299 -13.5299
   -13.5299 -13.5227 -13.5227 -13.5227 -13.5226 -13.5226 -13.5226  -9.3189
    -9.1945  -9.1649  -9.0909  -9.0294  -8.9715  -8.9213  -8.8569  -8.8557
    -8.8534  -8.8205  -8.8190  -8.8061  -8.7867  -8.7799  -8.7533  -8.7441
    -8.7199  -8.6844  -8.6383  -8.6242  -8.6159  -8.5940  -8.5856  -5.2971
    -5.0228  -5.0210  -5.0177  -5.0171  -5.0128  -5.0126  -5.0110  -5.0102
    -5.0077  -5.0076  -5.0076  -5.0072  -5.0072  -5.0054  -5.0047  -5.0042
    -5.0041  -5.0037  -5.0037  -5.0029  -5.0025  -5.0014  -4.9998  -4.9992
    -4.9509  -4.8680  -4.6839  -4.5030  -4.3983  -4.0982  -3.2557  -3.2490
    -3.2203  -3.2203  -3.2203  -0.8493  -0.5616  -0.4990  -0.4384  -0.3799
    -0.2823  -0.2806  -0.2241  -0.1998  -0.1586  -0.0448   0.1392   0.4072
     0.6909   0.6954   0.6984   0.7800   0.7855   0.8096   0.8359   0.8492
     0.8797   0.8995   0.9979   1.0101   1.0837   1.1141   1.1848   1.1996
     1.2115   1.2999   1.3027   1.3645   1.3920   1.4003   1.4175   1.4556
     1.4675   1.4695   1.4808   1.5290   1.5312   1.5679   1.5862   1.6007
     1.6103   1.6205   1.6264   1.6300   1.6303   1.6389   1.6835   1.6922
     1.7057   1.7145   1.7280   1.7319   1.7366   1.7490   1.7959   1.9684
     1.9733   2.0188   2.0265   2.0621   2.0674   2.0888   2.1145   2.1881
     2.2674   2.4278   2.5200   4.0239   4.6724   4.9137   5.0677   5.2005
     5.3075   5.4705   5.5049   5.6430   5.6786   5.8548   6.2659   6.4784
     6.4922   7.2395   7.3515   7.3619   7.3951   7.3956   7.4640   7.4674
     7.6698   7.7379   7.7552   7.7624   7.8054   7.8087   7.8796   7.8808
     7.8910   7.9006   7.9079   7.9474   7.9899   8.0147

     occupation numbers 
     1.0000   1.0000   1.0000   1.0000   1.0000   1.0000   1.0000   1.0000
     1.0000   1.0000   1.0000   1.0000   1.0000   1.0000   1.0000   1.0000
     1.0000   1.0000   1.0000   1.0000   1.0000   1.0000   1.0000   1.0000
     1.0000   1.0000   1.0000   1.0000   1.0000   1.0000   1.0000   1.0000
     1.0000   1.0000   1.0000   1.0000   1.0000   1.0000   1.0000   1.0000
     1.0000   1.0000   1.0000   1.0000   1.0000   1.0000   1.0000   1.0000
     1.0000   1.0000   1.0000   1.0000   1.0000   1.0000   1.0000   1.0000
     1.0000   1.0000   1.0000   1.0000   1.0000   1.0000   1.0000   1.0000
     1.0000   1.0000   1.0000   1.0000   1.0000   1.0000   1.0000   1.0000
     1.0000   1.0000   1.0000   1.0000   1.0000   1.0000   1.0000   1.0000
     1.0000   1.0000   1.0000   1.0000   1.0000   1.0000   1.0000   1.0000
     1.0000   1.0000   1.0000   1.0000   1.0000   1.0000   1.0000   1.0000
     1.0000   1.0000   1.0000   1.0000   1.0000   1.0000   1.0005   1.0005
     1.0005   1.0005   1.0005   1.0376   1.0505   1.0535   1.0563   1.0591
     1.0636   1.0636   1.0662   1.0672   1.0690   1.0736   1.0795   1.0833
     1.0778   1.0776   1.0774   1.0734   1.0731   1.0716   1.0699   1.0690
     1.0668   1.0652   1.0564   1.0552   1.0471   1.0434   1.0340   1.0319
     1.0302   1.0164   1.0159   1.0051   1.0001   0.9985   0.9952   0.9876
     0.9852   0.9848   0.9825   0.9722   0.9717   0.9635   0.9592   0.9558
     0.9536   0.9512   0.9497   0.9489   0.9488   0.9467   0.9356   0.9334
     0.9299   0.9277   0.9241   0.9231   0.9218   0.9185   0.9058   0.8550
     0.8535   0.8392   0.8368   0.8253   0.8236   0.8165   0.8080   0.7831
     0.7555   0.6976   0.6634   0.1781   0.0741   0.0508   0.0394   0.0313
     0.0259   0.0192   0.0180   0.0138   0.0128   0.0090   0.0037   0.0023
     0.0022   0.0003   0.0002   0.0002   0.0002   0.0002   0.0002   0.0002
     0.0001   0.0001   0.0001   0.0001   0.0001   0.0001   0.0001   0.0001
     0.0000   0.0000   0.0000   0.0000   0.0000   0.0000

          k = 0.0000 0.2500-0.5000 ( 57722 PWs)   bands (ev):

  -122.3158 -76.4900 -76.4900 -76.4900 -18.2214 -18.2214 -18.2212 -18.2212
   -18.2211 -18.2211 -18.2209 -18.2209 -13.6137 -13.6097 -13.6078 -13.6072
   -13.6059 -13.6054 -13.6011 -13.5973 -13.5864 -13.5848 -13.5839 -13.5768
   -13.5762 -13.5762 -13.5486 -13.5486 -13.5486 -13.5481 -13.5481 -13.5481
   -13.5480 -13.5480 -13.5479 -13.5479 -13.5479 -13.5479 -13.5300 -13.5299
   -13.5299 -13.5227 -13.5227 -13.5227 -13.5227 -13.5227 -13.5226  -9.2803
    -9.2377  -9.1382  -9.1011  -9.0662  -8.9942  -8.9414  -8.8568  -8.8549
    -8.8543  -8.8317  -8.8034  -8.7934  -8.7789  -8.7442  -8.7154  -8.7012
    -8.7003  -8.6822  -8.6754  -8.6427  -8.6284  -8.6165  -8.5901  -5.1790
    -5.0584  -5.0179  -5.0179  -5.0140  -5.0131  -5.0108  -5.0102  -5.0101
    -5.0100  -5.0099  -5.0092  -5.0092  -5.0083  -5.0064  -5.0058  -5.0057
    -5.0053  -5.0048  -5.0032  -5.0032  -5.0031  -5.0015  -5.0009  -5.0008
    -4.9935  -4.7762  -4.6862  -4.6131  -4.3670  -4.2224  -3.2621  -3.2503
    -3.2203  -3.2203  -3.2203  -0.9350  -0.5430  -0.5009  -0.4543  -0.3255
    -0.2688  -0.2008  -0.0533   0.1531   0.2723   0.2895   0.3360   0.3377
     0.4200   0.4385   0.7168   0.7437   0.7550   0.7616   0.7821   0.7871
     0.7904   0.8970   0.9210   0.9218   0.9423   0.9429   1.0927   1.1292
     1.1858   1.2219   1.3205   1.3528   1.3530   1.4051   1.4085   1.4301
     1.4428   1.4480   1.5007   1.5085   1.5432   1.5518   1.5612   1.6033
     1.6120   1.6216   1.6229   1.6409   1.6410   1.6967   1.6981   1.7285
     1.7336   1.7569   1.8015   1.8230   1.8391   1.8455   1.8686   1.8793
     1.9127   1.9144   1.9209   1.9252   1.9909   2.0670   2.1029   2.1342
     2.2039   2.3204   2.4377   3.8619   4.7625   4.8886   5.0433   5.3097
     5.4551   5.6491   5.8401   6.3010   6.4136   6.4166   6.6220   6.6444
     6.7755   6.8112   6.8525   6.8697   7.0654   7.4899   7.4989   7.5187
     7.5871   7.5874   7.5941   7.6147   7.6462   7.6757   7.7212   7.8057
     7.8076   7.8667   7.9086   7.9242   7.9974   8.0420

     occupation numbers 
     1.0000   1.0000   1.0000   1.0000   1.0000   1.0000   1.0000   1.0000
     1.0000   1.0000   1.0000   1.0000   1.0000   1.0000   1.0000   1.0000
     1.0000   1.0000   1.0000   1.0000   1.0000   1.0000   1.0000   1.0000
     1.0000   1.0000   1.0000   1.0000   1.0000   1.0000   1.0000   1.0000
     1.0000   1.0000   1.0000   1.0000   1.0000   1.0000   1.0000   1.0000
     1.0000   1.0000   1.0000   1.0000   1.0000   1.0000   1.0000   1.0000
     1.0000   1.0000   1.0000   1.0000   1.0000   1.0000   1.0000   1.0000
     1.0000   1.0000   1.0000   1.0000   1.0000   1.0000   1.0000   1.0000
     1.0000   1.0000   1.0000   1.0000   1.0000   1.0000   1.0000   1.0000
     1.0000   1.0000   1.0000   1.0000   1.0000   1.0000   1.0000   1.0000
     1.0000   1.0000   1.0000   1.0000   1.0000   1.0000   1.0000   1.0000
     1.0000   1.0000   1.0000   1.0000   1.0000   1.0000   1.0000   1.0000
     1.0000   1.0000   1.0000   1.0000   1.0000   1.0000   1.0005   1.0005
     1.0005   1.0005   1.0005   1.0341   1.0514   1.0534   1.0556   1.0616
     1.0642   1.0672   1.0733   1.0799   1.0823   1.0825   1.0830   1.0830
     1.0833   1.0833   1.0766   1.0753   1.0748   1.0744   1.0733   1.0730
     1.0728   1.0654   1.0635   1.0634   1.0617   1.0616   1.0460   1.0415
     1.0339   1.0287   1.0129   1.0072   1.0072   0.9976   0.9969   0.9927
     0.9902   0.9892   0.9783   0.9766   0.9690   0.9671   0.9650   0.9552
     0.9532   0.9509   0.9506   0.9462   0.9462   0.9322   0.9319   0.9240
     0.9226   0.9164   0.9042   0.8982   0.8936   0.8918   0.8851   0.8819
     0.8720   0.8715   0.8696   0.8683   0.8480   0.8237   0.8119   0.8014
     0.7776   0.7366   0.6939   0.2151   0.0646   0.0529   0.0411   0.0258
     0.0198   0.0136   0.0093   0.0034   0.0026   0.0026   0.0016   0.0015
     0.0011   0.0010   0.0009   0.0009   0.0005   0.0002   0.0002   0.0001
     0.0001   0.0001   0.0001   0.0001   0.0001   0.0001   0.0001   0.0001
     0.0001   0.0001   0.0000   0.0000   0.0000   0.0000

          k = 0.0000-0.5000-0.5000 ( 57708 PWs)   bands (ev):

  -122.3158 -76.4900 -76.4900 -76.4900 -18.2213 -18.2213 -18.2213 -18.2213
   -18.2210 -18.2210 -18.2210 -18.2210 -13.6127 -13.6074 -13.6074 -13.6055
   -13.6050 -13.6050 -13.6048 -13.5977 -13.5871 -13.5851 -13.5851 -13.5769
   -13.5764 -13.5764 -13.5486 -13.5486 -13.5485 -13.5481 -13.5480 -13.5480
   -13.5480 -13.5479 -13.5479 -13.5479 -13.5479 -13.5479 -13.5300 -13.5299
   -13.5299 -13.5227 -13.5227 -13.5227 -13.5227 -13.5227 -13.5227  -9.2270
    -9.2147  -9.2147  -9.1323  -9.0270  -9.0051  -9.0051  -8.8562  -8.8549
    -8.8549  -8.8473  -8.7442  -8.7326  -8.7304  -8.7304  -8.7299  -8.7280
    -8.6897  -8.6863  -8.6863  -8.6593  -8.6250  -8.6250  -8.6221  -5.0352
    -5.0285  -5.0285  -5.0162  -5.0161  -5.0140  -5.0140  -5.0123  -5.0099
    -5.0099  -5.0074  -5.0074  -5.0058  -5.0058  -5.0056  -5.0055  -5.0041
    -5.0041  -5.0032  -5.0032  -5.0023  -5.0021  -5.0010  -4.9999  -4.9771
    -4.9638  -4.9638  -4.7190  -4.4464  -4.4240  -4.4240  -3.2664  -3.2533
    -3.2203  -3.2203  -3.2203  -1.0136  -0.5031  -0.4974  -0.4974  -0.0611
     0.1467   0.1874   0.1908   0.1908   0.3043   0.3484   0.3484   0.3990
     0.4238   0.4502   0.4502   0.4667   0.5081   0.7592   0.7868   0.7868
     0.8049   0.8687   0.8721   0.8721   0.9435   0.9608   0.9880   0.9880
     1.1912   1.1936   1.1936   1.2096   1.2950   1.3029   1.3029   1.3279
     1.4636   1.4836   1.4836   1.5039   1.5571   1.5871   1.5871   1.6093
     1.6254   1.6349   1.6358   1.6358   1.7065   1.7536   1.7774   1.7774
     1.8000   1.8000   1.8140   1.8435   1.8465   1.8465   1.8465   1.8811
     1.9001   1.9092   1.9222   1.9222   1.9400   1.9686   1.9696   1.9696
     2.2209   2.2694   2.2694   3.6824   4.9032   4.9154   4.9154   5.8243
     6.4357   6.4504   6.4504   6.4829   6.4842   6.5989   6.6083   6.6083
     6.7690   6.7757   6.7757   6.8015   6.8424   7.0998   7.1690   7.1690
     7.1775   7.2446   7.6133   7.6134   7.6244   7.6448   7.7946   7.7946
     7.8308   7.8384   7.9144   7.9146   7.9830   8.0359

     occupation numbers 
     1.0000   1.0000   1.0000   1.0000   1.0000   1.0000   1.0000   1.0000
     1.0000   1.0000   1.0000   1.0000   1.0000   1.0000   1.0000   1.0000
     1.0000   1.0000   1.0000   1.0000   1.0000   1.0000   1.0000   1.0000
     1.0000   1.0000   1.0000   1.0000   1.0000   1.0000   1.0000   1.0000
     1.0000   1.0000   1.0000   1.0000   1.0000   1.0000   1.0000   1.0000
     1.0000   1.0000   1.0000   1.0000   1.0000   1.0000   1.0000   1.0000
     1.0000   1.0000   1.0000   1.0000   1.0000   1.0000   1.0000   1.0000
     1.0000   1.0000   1.0000   1.0000   1.0000   1.0000   1.0000   1.0000
     1.0000   1.0000   1.0000   1.0000   1.0000   1.0000   1.0000   1.0000
     1.0000   1.0000   1.0000   1.0000   1.0000   1.0000   1.0000   1.0000
     1.0000   1.0000   1.0000   1.0000   1.0000   1.0000   1.0000   1.0000
     1.0000   1.0000   1.0000   1.0000   1.0000   1.0000   1.0000   1.0000
     1.0000   1.0000   1.0000   1.0000   1.0000   1.0000   1.0005   1.0005
     1.0005   1.0005   1.0005   1.0310   1.0533   1.0535   1.0535   1.0730
     1.0797   1.0807   1.0808   1.0808   1.0827   1.0831   1.0831   1.0833
     1.0833   1.0832   1.0832   1.0831   1.0827   1.0745   1.0730   1.0730
     1.0719   1.0676   1.0674   1.0674   1.0616   1.0600   1.0574   1.0574
     1.0331   1.0328   1.0328   1.0305   1.0172   1.0159   1.0159   1.0116
     0.9860   0.9819   0.9819   0.9776   0.9659   0.9590   0.9590   0.9538
     0.9500   0.9477   0.9474   0.9474   0.9297   0.9173   0.9109   0.9109
     0.9046   0.9046   0.9007   0.8923   0.8915   0.8915   0.8915   0.8814
     0.8758   0.8731   0.8692   0.8692   0.8638   0.8550   0.8547   0.8547
     0.7717   0.7547   0.7547   0.2616   0.0517   0.0507   0.0507   0.0096
     0.0025   0.0024   0.0024   0.0022   0.0022   0.0017   0.0016   0.0016
     0.0011   0.0011   0.0011   0.0010   0.0009   0.0005   0.0004   0.0004
     0.0004   0.0003   0.0001   0.0001   0.0001   0.0001   0.0001   0.0001
     0.0001   0.0001   0.0000   0.0000   0.0000   0.0000

          k = 0.2500 0.2500 0.2500 ( 57718 PWs)   bands (ev):

  -122.3158 -76.4900 -76.4900 -76.4900 -18.2214 -18.2212 -18.2212 -18.2212
   -18.2210 -18.2210 -18.2210 -18.2209 -13.6121 -13.6121 -13.6079 -13.6062
   -13.6062 -13.6053 -13.5993 -13.5993 -13.5854 -13.5854 -13.5839 -13.5767
   -13.5763 -13.5763 -13.5486 -13.5486 -13.5486 -13.5481 -13.5481 -13.5481
   -13.5480 -13.5480 -13.5480 -13.5479 -13.5479 -13.5479 -13.5299 -13.5299
   -13.5299 -13.5227 -13.5227 -13.5227 -13.5227 -13.5227 -13.5226  -9.2995
    -9.1747  -9.1747  -9.1146  -9.0328  -9.0328  -8.9651  -8.8380  -8.8199
    -8.8186  -8.8186  -8.8058  -8.8058  -8.7860  -8.7563  -8.7563  -8.7193
    -8.7193  -8.6768  -8.6385  -8.6385  -8.6364  -8.6003  -8.6003  -5.2321
    -5.0208  -5.0208  -5.0139  -5.0139  -5.0127  -5.0122  -5.0112  -5.0112
    -5.0088  -5.0087  -5.0078  -5.0078  -5.0075  -5.0075  -5.0063  -5.0063
    -5.0041  -5.0041  -5.0035  -5.0025  -5.0013  -5.0013  -5.0000  -4.9979
    -4.8848  -4.8848  -4.7039  -4.4964  -4.4964  -4.1897  -3.2560  -3.2560
    -3.2203  -3.2203  -3.2203  -0.9497  -0.3692  -0.3692  -0.3059  -0.2491
    -0.2491  -0.2156  -0.1991  -0.1991  -0.1698   0.1285   0.1285   0.4808
     0.7050   0.7106   0.7106   0.7772   0.7772   0.7773   0.8230   0.8487
     0.8487   0.8595   0.9400   0.9400   1.0748   1.0748   1.1447   1.1934
     1.1934   1.2170   1.2296   1.2296   1.2936   1.3295   1.3295   1.4379
     1.4379   1.4400   1.4766   1.4766   1.5562   1.5662   1.5662   1.6035
     1.6110   1.6110   1.6758   1.6988   1.6998   1.7079   1.7102   1.7102
     1.7256   1.7256   1.7525   1.7525   1.7659   1.7955   1.7955   1.9706
     1.9706   1.9810   2.0115   2.0115   2.0292   2.0589   2.0589   2.0755
[...]
     atom   38 type  2   force =    -0.00000000   -0.00000000   -0.14497866
     atom   39 type  2   force =    -0.00000000   -0.14497866   -0.00000000
     atom   40 type  2   force =    -0.00000000    0.14497866   -0.00000000
     The local contribution  to forces
     atom    1 type  1   force =     0.73101452    0.73101452    0.73101452
     atom    2 type  1   force =    -0.73101452    0.73101452   -0.73101452
     atom    3 type  1   force =     0.73101452   -0.73101452   -0.73101452
     atom    4 type  1   force =    -0.73101452   -0.73101452    0.73101452
     atom    5 type  1   force =     0.73101452    0.73101452   -0.73101452
     atom    6 type  1   force =     0.73101452   -0.73101452    0.73101452
     atom    7 type  1   force =    -0.73101452    0.73101452    0.73101452
     atom    8 type  1   force =    -0.73101452   -0.73101452   -0.73101452
     atom    9 type  4   force =     0.00000000    0.00000000    0.00000000
     atom   10 type  3   force =     0.00000000   -0.00000000    0.00000000
     atom   11 type  3   force =    -0.00000000    0.00000000    0.00000000
     atom   12 type  3   force =     0.00000000    0.00000000   -0.00000000
     atom   13 type  3   force =     0.00000000   -0.00000000   -0.00000000
     atom   14 type  3   force =    -0.00000000   -0.00000000    0.00000000
     atom   15 type  3   force =    -0.00000000    0.00000000   -0.00000000
     atom   16 type  3   force =    -0.00000000   -0.00000000   -0.00000000
     atom   17 type  2   force =     0.00000000   -5.45311645   -0.00000000
     atom   18 type  2   force =     0.00000000    5.45311645    0.00000000
     atom   19 type  2   force =    -5.45311645   -0.00000000   -0.00000000
     atom   20 type  2   force =     5.45311645    0.00000000   -0.00000000
     atom   21 type  2   force =     0.00000000    0.00000000    5.45311645
     atom   22 type  2   force =     0.00000000    0.00000000   -5.45311645
     atom   23 type  2   force =    -0.00000000    0.00000000    0.23507628
     atom   24 type  2   force =    -0.00000000    0.00000000   -0.23507628
     atom   25 type  2   force =     0.23507628   -0.00000000   -0.00000000
     atom   26 type  2   force =    -0.23507628   -0.00000000   -0.00000000
     atom   27 type  2   force =     0.00000000    0.23507628   -0.00000000
     atom   28 type  2   force =     0.00000000   -0.23507628   -0.00000000
     atom   29 type  2   force =    -0.00000000   -0.00000000   -0.23507628
     atom   30 type  2   force =    -0.00000000   -0.00000000    0.23507628
     atom   31 type  2   force =    -0.00000000    0.23507628   -0.00000000
     atom   32 type  2   force =    -0.00000000   -0.23507628   -0.00000000
     atom   33 type  2   force =     0.23507628    0.00000000   -0.00000000
     atom   34 type  2   force =    -0.23507628   -0.00000000   -0.00000000
     atom   35 type  2   force =     0.14474648   -0.00000000   -0.00000000
     atom   36 type  2   force =    -0.14474648   -0.00000000   -0.00000000
     atom   37 type  2   force =    -0.00000000   -0.00000000   -0.14474648
     atom   38 type  2   force =    -0.00000000   -0.00000000    0.14474648
     atom   39 type  2   force =    -0.00000000    0.14474648   -0.00000000
     atom   40 type  2   force =    -0.00000000   -0.14474648   -0.00000000
     The core correction contribution to forces
     atom    1 type  1   force =     0.00008041    0.00008041    0.00008041
     atom    2 type  1   force =    -0.00008041    0.00008041   -0.00008041
     atom    3 type  1   force =     0.00008041   -0.00008041   -0.00008041
     atom    4 type  1   force =    -0.00008041   -0.00008041    0.00008041
     atom    5 type  1   force =     0.00008041    0.00008041   -0.00008041
     atom    6 type  1   force =     0.00008041   -0.00008041    0.00008041
     atom    7 type  1   force =    -0.00008041    0.00008041    0.00008041
     atom    8 type  1   force =    -0.00008041   -0.00008041   -0.00008041
     atom    9 type  4   force =     0.00000000    0.00000000    0.00000000
     atom   10 type  3   force =     0.00000000   -0.00000000    0.00000000
     atom   11 type  3   force =    -0.00000000    0.00000000    0.00000000
     atom   12 type  3   force =     0.00000000    0.00000000   -0.00000000
     atom   13 type  3   force =     0.00000000   -0.00000000   -0.00000000
     atom   14 type  3   force =    -0.00000000   -0.00000000    0.00000000
     atom   15 type  3   force =    -0.00000000    0.00000000   -0.00000000
     atom   16 type  3   force =    -0.00000000   -0.00000000   -0.00000000
     atom   17 type  2   force =     0.00000000    0.00185873    0.00000000
     atom   18 type  2   force =     0.00000000   -0.00185873    0.00000000
     atom   19 type  2   force =     0.00185873    0.00000000    0.00000000
     atom   20 type  2   force =    -0.00185873    0.00000000    0.00000000
     atom   21 type  2   force =     0.00000000    0.00000000   -0.00185873
     atom   22 type  2   force =     0.00000000    0.00000000    0.00185873
     atom   23 type  2   force =    -0.00000000    0.00000000   -0.00006176
     atom   24 type  2   force =     0.00000000    0.00000000    0.00006176
     atom   25 type  2   force =    -0.00006176   -0.00000000    0.00000000
     atom   26 type  2   force =     0.00006176    0.00000000    0.00000000
     atom   27 type  2   force =     0.00000000   -0.00006176   -0.00000000
     atom   28 type  2   force =     0.00000000    0.00006176    0.00000000
     atom   29 type  2   force =     0.00000000    0.00000000    0.00006176
     atom   30 type  2   force =     0.00000000   -0.00000000   -0.00006176
     atom   31 type  2   force =    -0.00000000   -0.00006176    0.00000000
     atom   32 type  2   force =     0.00000000    0.00006176    0.00000000
     atom   33 type  2   force =    -0.00006176    0.00000000   -0.00000000
     atom   34 type  2   force =     0.00006176    0.00000000    0.00000000
     atom   35 type  2   force =    -0.00001894   -0.00000000   -0.00000000
     atom   36 type  2   force =     0.00001894   -0.00000000   -0.00000000
     atom   37 type  2   force =     0.00000000    0.00000000    0.00001894
     atom   38 type  2   force =     0.00000000   -0.00000000   -0.00001894
     atom   39 type  2   force =     0.00000000   -0.00001894   -0.00000000
     atom   40 type  2   force =     0.00000000    0.00001894    0.00000000
     The Hubbard contrib.    to forces
     atom    1 type  1   force =     0.00000000    0.00000000    0.00000000
     atom    2 type  1   force =     0.00000000    0.00000000    0.00000000
     atom    3 type  1   force =     0.00000000    0.00000000    0.00000000
     atom    4 type  1   force =     0.00000000    0.00000000    0.00000000
     atom    5 type  1   force =     0.00000000    0.00000000    0.00000000
     atom    6 type  1   force =     0.00000000    0.00000000    0.00000000
     atom    7 type  1   force =     0.00000000    0.00000000    0.00000000
     atom    8 type  1   force =     0.00000000    0.00000000    0.00000000
     atom    9 type  4   force =     0.00000000    0.00000000    0.00000000
     atom   10 type  3   force =     0.00000000    0.00000000    0.00000000
     atom   11 type  3   force =     0.00000000    0.00000000    0.00000000
     atom   12 type  3   force =     0.00000000    0.00000000    0.00000000
     atom   13 type  3   force =     0.00000000    0.00000000    0.00000000
     atom   14 type  3   force =     0.00000000    0.00000000    0.00000000
     atom   15 type  3   force =     0.00000000    0.00000000    0.00000000
     atom   16 type  3   force =     0.00000000    0.00000000    0.00000000
     atom   17 type  2   force =     0.00000000    0.00000000    0.00000000
     atom   18 type  2   force =     0.00000000    0.00000000    0.00000000
     atom   19 type  2   force =     0.00000000    0.00000000    0.00000000
     atom   20 type  2   force =     0.00000000    0.00000000    0.00000000
     atom   21 type  2   force =     0.00000000    0.00000000    0.00000000
     atom   22 type  2   force =     0.00000000    0.00000000    0.00000000
     atom   23 type  2   force =     0.00000000    0.00000000    0.00000000
     atom   24 type  2   force =     0.00000000    0.00000000    0.00000000
     atom   25 type  2   force =     0.00000000    0.00000000    0.00000000
     atom   26 type  2   force =     0.00000000    0.00000000    0.00000000
     atom   27 type  2   force =     0.00000000    0.00000000    0.00000000
     atom   28 type  2   force =     0.00000000    0.00000000    0.00000000
     atom   29 type  2   force =     0.00000000    0.00000000    0.00000000
     atom   30 type  2   force =     0.00000000    0.00000000    0.00000000
     atom   31 type  2   force =     0.00000000    0.00000000    0.00000000
     atom   32 type  2   force =     0.00000000    0.00000000    0.00000000
     atom   33 type  2   force =     0.00000000    0.00000000    0.00000000
     atom   34 type  2   force =     0.00000000    0.00000000    0.00000000
     atom   35 type  2   force =     0.00000000    0.00000000    0.00000000
     atom   36 type  2   force =     0.00000000    0.00000000    0.00000000
     atom   37 type  2   force =     0.00000000    0.00000000    0.00000000
     atom   38 type  2   force =     0.00000000    0.00000000    0.00000000
     atom   39 type  2   force =     0.00000000    0.00000000    0.00000000
     atom   40 type  2   force =     0.00000000    0.00000000    0.00000000
     The SCF correction term to forces
     atom    1 type  1   force =    -0.00000014   -0.00000014   -0.00000014
     atom    2 type  1   force =     0.00000014   -0.00000014    0.00000014
     atom    3 type  1   force =    -0.00000014    0.00000014    0.00000014
     atom    4 type  1   force =     0.00000014    0.00000014   -0.00000014
     atom    5 type  1   force =    -0.00000014   -0.00000014    0.00000014
     atom    6 type  1   force =    -0.00000014    0.00000014   -0.00000014
     atom    7 type  1   force =     0.00000014   -0.00000014   -0.00000014
     atom    8 type  1   force =     0.00000014    0.00000014    0.00000014
     atom    9 type  4   force =     0.00000000    0.00000000    0.00000000
     atom   10 type  3   force =    -0.00000000    0.00000000   -0.00000000
     atom   11 type  3   force =     0.00000000    0.00000000   -0.00000000
     atom   12 type  3   force =    -0.00000000    0.00000000    0.00000000
     atom   13 type  3   force =     0.00000000   -0.00000000    0.00000000
     atom   14 type  3   force =     0.00000000    0.00000000   -0.00000000
     atom   15 type  3   force =     0.00000000    0.00000000    0.00000000
     atom   16 type  3   force =    -0.00000000   -0.00000000    0.00000000
     atom   17 type  2   force =     0.00000000    0.00000092    0.00000000
     atom   18 type  2   force =    -0.00000000   -0.00000092    0.00000000
     atom   19 type  2   force =     0.00000092    0.00000000    0.00000000
     atom   20 type  2   force =    -0.00000092    0.00000000    0.00000000
     atom   21 type  2   force =    -0.00000000    0.00000000   -0.00000092
     atom   22 type  2   force =     0.00000000   -0.00000000    0.00000092
     atom   23 type  2   force =    -0.00000000    0.00000000    0.00000014
     atom   24 type  2   force =     0.00000000   -0.00000000   -0.00000014
     atom   25 type  2   force =     0.00000014    0.00000000    0.00000000
     atom   26 type  2   force =    -0.00000014    0.00000000   -0.00000000
     atom   27 type  2   force =     0.00000000    0.00000014   -0.00000000
     atom   28 type  2   force =    -0.00000000   -0.00000014    0.00000000
     atom   29 type  2   force =    -0.00000000    0.00000000   -0.00000014
     atom   30 type  2   force =    -0.00000000    0.00000000    0.00000014
     atom   31 type  2   force =     0.00000000    0.00000014    0.00000000
     atom   32 type  2   force =     0.00000000   -0.00000014    0.00000000
     atom   33 type  2   force =     0.00000014    0.00000000    0.00000000
     atom   34 type  2   force =    -0.00000014    0.00000000    0.00000000
     atom   35 type  2   force =     0.00000013   -0.00000000   -0.00000000
     atom   36 type  2   force =    -0.00000013   -0.00000000   -0.00000000
     atom   37 type  2   force =     0.00000000    0.00000000   -0.00000013
     atom   38 type  2   force =     0.00000000    0.00000000    0.00000013
     atom   39 type  2   force =     0.00000000    0.00000013   -0.00000000
     atom   40 type  2   force =    -0.00000000   -0.00000013    0.00000000

     Total force =     0.000088     Total SCF correction =     0.000002


     Computing stress (Cartesian axis) and pressure

          total   stress  (Ry/bohr**3)                   (kbar)     P=       -0.46
  -0.00000311   0.00000000   0.00000000           -0.46        0.00        0.00
   0.00000000  -0.00000311   0.00000000            0.00       -0.46        0.00
   0.00000000   0.00000000  -0.00000311            0.00        0.00       -0.46

     kinetic stress (kbar)   4175.44      0.00      0.00
                                0.00   4175.44      0.00
                                0.00      0.00   4175.44

     local   stress (kbar)   -820.99     -0.00      0.00
                               -0.00   -820.99      0.00
                                0.00      0.00   -820.99

     nonloc. stress (kbar)   1001.17      0.00      0.00
                                0.00   1001.17      0.00
                                0.00      0.00   1001.17

     hartree stress (kbar)   3185.64      0.00      0.00
                                0.00   3185.64     -0.00
                                0.00     -0.00   3185.64

     exc-cor stress (kbar)  13806.14      0.00     -0.00
                                0.00  13806.14     -0.00
                               -0.00     -0.00  13806.14

     corecor stress (kbar) -15766.93      0.00      0.00
                                0.00 -15766.93      0.00
                                0.00      0.00 -15766.93

     ewald   stress (kbar)  -5580.92     -0.00      0.00
                               -0.00  -5580.92     -0.00
                                0.00     -0.00  -5580.92

     hubbard stress (kbar)      0.00      0.00      0.00
                                0.00      0.00      0.00
                                0.00      0.00      0.00

     DFT-D   stress (kbar)      0.00      0.00      0.00
                                0.00      0.00      0.00
                                0.00      0.00      0.00

     XDM     stress (kbar)      0.00      0.00      0.00
                                0.00      0.00      0.00
                                0.00      0.00      0.00

     dft-nl  stress (kbar)      0.00      0.00      0.00
                                0.00      0.00      0.00
                                0.00      0.00      0.00

     TS-vdW  stress (kbar)      0.00      0.00      0.00
                                0.00      0.00      0.00
                                0.00      0.00      0.00

     MDB     stress (kbar)      0.00      0.00      0.00
                                0.00      0.00      0.00
                                0.00      0.00      0.00

     3D-RISM stress (kbar)      0.00      0.00      0.00
                                0.00      0.00      0.00
                                0.00      0.00      0.00


     Writing all to output data dir ../out/aiida.save/ :
     XML data file, charge density, pseudopotentials, collected wavefunctions
 
     init_run     :     69.21s CPU     70.46s WALL (       2 calls)
     electrons    :  34232.86s CPU  34329.44s WALL (      24 calls)
     update_pot   :     31.59s CPU     31.59s WALL (      22 calls)
     forces       :    577.89s CPU    577.87s WALL (      24 calls)
     stress       :   1899.11s CPU   1901.44s WALL (      24 calls)

     Called by init_run:
     wfcinit      :     60.60s CPU     61.52s WALL (       2 calls)
     wfcinit:atom :      2.05s CPU      2.06s WALL (      20 calls)
     wfcinit:wfcr :     57.62s CPU     58.29s WALL (      20 calls)
     potinit      :      2.90s CPU      2.96s WALL (       2 calls)
     hinit0       :      1.81s CPU      1.87s WALL (       2 calls)

     Called by electrons:
     c_bands      :  29125.03s CPU  29205.54s WALL (     353 calls)
     sum_band     :   4102.74s CPU   4113.97s WALL (     353 calls)
     v_of_rho     :     46.82s CPU     47.13s WALL (     361 calls)
     v_h          :      7.38s CPU      7.46s WALL (     361 calls)
     v_xc         :     44.85s CPU     45.13s WALL (     409 calls)
     newd         :    587.02s CPU    588.73s WALL (     361 calls)
                                      588.58s GPU  (     361 calls)
     PAW_pot      :    418.68s CPU    419.85s WALL (     383 calls)
     mix_rho      :     27.46s CPU     27.65s WALL (     353 calls)

     Called by c_bands:
     init_us_2    :    271.02s CPU    271.70s WALL (    7780 calls)
     cegterg      :  28470.66s CPU  28549.25s WALL (    3540 calls)

     Called by sum_band:
     sum_band:wei :      1.01s CPU      1.01s WALL (     353 calls)
     sum_band:loo :   3510.36s CPU   3519.72s WALL (     353 calls)
     sum_band:buf :    136.32s CPU    136.73s WALL (    3530 calls)
     sum_band:ini :    113.37s CPU    113.67s WALL (    3530 calls)
     sum_band:cal :   1884.14s CPU   1888.41s WALL (    3750 calls)
     sum_band:bec :    187.61s CPU    188.09s WALL (    3750 calls)
     addusdens    :    573.69s CPU    575.41s WALL (     353 calls)
                                      575.34s GPU  (     353 calls)
     addusd:skk   :     11.32s CPU     11.89s WALL (    1412 calls)
                                       11.43s GPU  (    1412 calls)

     Called by *egterg:
     cdiaghg      :    481.17s CPU    484.77s WALL (   16051 calls)
                                      481.57s GPU  (   16051 calls)
     cegterg:over :   5301.78s CPU   5315.92s WALL (   12901 calls)
     cegterg:upda :   2139.16s CPU   2144.80s WALL (   12901 calls)
     cegterg:last :   4089.94s CPU   4101.28s WALL (    7250 calls)
     h_psi        :  13313.68s CPU  13383.12s WALL (   16461 calls)
                                    13364.56s GPU  (   16461 calls)
     s_psi        :    580.32s CPU    582.27s WALL (   16461 calls)
     g_psi        :      0.08s CPU     84.97s WALL (   12901 calls)
                                       19.67s GPU  (   12901 calls)

     Called by h_psi:
     h_psi:calbec :   4431.89s CPU   4446.92s WALL (   16461 calls)
                                     4392.85s GPU  (   16461 calls)
     vloc_psi     :   5607.40s CPU   5631.14s WALL (   16461 calls)
                                     5622.62s GPU  (   16461 calls)
     add_vuspsi   :    318.96s CPU   3197.08s WALL (   16461 calls)
                                     3193.19s GPU  (   16461 calls)

     General routines
     calbec       :   8321.37s CPU   8338.76s WALL (   24291 calls)
     fft          :     27.20s CPU     35.92s WALL (    5283 calls)
                                       24.95s GPU  (    4922 calls)
     ffts         :      2.75s CPU      2.96s WALL (     714 calls)
                                        1.14s GPU  (     353 calls)
     fftw         :   4617.73s CPU   5248.82s WALL (  303652 calls)
                                     4515.79s GPU  (  303652 calls)
     interpolate  :     10.72s CPU     11.13s WALL (     361 calls)
 
     Parallel routines

     PAW routines
     PAW_pot      :    418.68s CPU    419.85s WALL (     383 calls)
     PAW_symme    :      1.30s CPU      1.31s WALL (     736 calls)
 
     PWSCF        :     10h16m CPU     10h18m WALL

 
   This run was terminated on:  21:15:25  11Apr2025            

=------------------------------------------------------------------------------=
   JOB DONE.
=------------------------------------------------------------------------------=
