
     Program PWSCF v.7.4 starts on 21Mar2025 at 16: 5:15 

     This program is part of the open-source Quantum ESPRESSO suite
     for quantum simulation of materials; please cite
         "P. Giannozzi et al., J. Phys.:Condens. Matter 21 395502 (2009);
         "P. Giannozzi et al., J. Phys.:Condens. Matter 29 465901 (2017);
         "P. Giannozzi et al., J. Chem. Phys. 152 154105 (2020);
          URL http://www.quantum-espresso.org", 
     in publications or presentations arising from this work. More details at
     http://www.quantum-espresso.org/quote

     Parallel version (MPI), running on     4 processors

     MPI processes distributed on     1 nodes
     25012 MiB available memory on the printing compute node when the environment starts
 
     Waiting for input...
     Reading input from standard input

     Current dimensions of program PWSCF are:
     Max number of different atomic species (ntypx) = 10
     Max number of k-points (npk) =  40000
     Max angular momentum in pseudopotentials (lmaxx) =  4
     file Pb.pbe-dn-kjpaw_psl.0.2.2.UPF: wavefunction(s)  6S renormalized
     file Cu.paw.z_11.ld1.psl.v1.0.0-low.upf: wavefunction(s)  4S 3D renormalized
 
     R & G space division:  proc/nbgrp/npool/nimage =       4
     Subspace diagonalization in iterative solution of the eigenvalue problem:
     a serial algorithm will be used

 
     Parallelization info
     --------------------
     sticks:   dense  smooth     PW     G-vecs:    dense   smooth      PW
     Min        3505    1754    471               312321   110484   15361
     Max        3506    1755    472               312326   110489   15362
     Sum       14021    7017   1885              1249289   441943   61445
 
     Using Slab Decomposition
 


     bravais-lattice index     =            1
     lattice parameter (alat)  =      23.4676  a.u.
     unit-cell volume          =   12924.2768 (a.u.)^3
     number of atoms/cell      =           40
     number of atomic types    =            4
     number of electrons       =       349.00
     number of Kohn-Sham states=          210
     kinetic-energy cutoff     =      40.0000  Ry
     charge density cutoff     =     320.0000  Ry
     scf convergence threshold =      1.4E-09
     mixing beta               =       0.4000
     number of iterations used =            8  plain     mixing
     energy convergence thresh.=      7.0E-05
     force convergence thresh. =      1.0E-04
     press convergence thresh. =      5.0E-02
     Exchange-correlation= SLA  PW   PBX  PBC
                           (   1   4   3   4   0   0   0)
     nstep                     =           50


     GPU acceleration is ACTIVE.  1 visible GPUs per MPI rank
     GPU-aware MPI enabled

     Message from routine print_cuda_info:
     High GPU oversubscription detected. Are you sure this is what you want?

     GPU used by master process:

        Device Number: 0
        Device name: NVIDIA RTX A2000 12GB
        Compute capability : 86
        Ratio of single to double precision performance  : 32
        Memory Clock Rate (KHz): 6001000
        Memory Bus Width (bits): 192
        Peak Memory Bandwidth (GB/s): 288.05

     celldm(1)=  23.467604  celldm(2)=   0.000000  celldm(3)=   0.000000
     celldm(4)=   0.000000  celldm(5)=   0.000000  celldm(6)=   0.000000

     crystal axes: (cart. coord. in units of alat)
               a(1) = (   1.000000   0.000000   0.000000 )  
               a(2) = (   0.000000   1.000000   0.000000 )  
               a(3) = (   0.000000   0.000000   1.000000 )  

     reciprocal axes: (cart. coord. in units 2 pi/alat)
               b(1) = (  1.000000  0.000000  0.000000 )  
               b(2) = (  0.000000  1.000000  0.000000 )  
               b(3) = (  0.000000  0.000000  1.000000 )  


     PseudoPot. # 1 for Cs read from file:
     ../pseudo/Cs_pbe_v1.uspp.F.UPF
     MD5 check sum: 3476d69cb178dfad3ffaa59df4e07ca4
     Pseudo is Ultrasoft + core correction, Zval =  9.0
     Generated by new atomic code, or converted to UPF format
     Using radial grid of  905 points,  6 beta functions with: 
                l(1) =   0
                l(2) =   0
                l(3) =   1
                l(4) =   1
                l(5) =   2
                l(6) =   2
     Q(r) pseudized with  6 coefficients,  rinner =    1.500   1.500   1.500
                                                       1.500   1.500

     PseudoPot. # 2 for I  read from file:
     ../pseudo/I.pbe-n-kjpaw_psl.0.2.UPF
     MD5 check sum: d4ef18d9c8f18dc85e5843bca1e50dc0
     Pseudo is Projector augmented-wave + core cor, Zval =  7.0
     Generated using "atomic" code by A. Dal Corso  v.5.0.99 svn rev. 10869
     Shape of augmentation charge: PSQ
     Using radial grid of 1247 points,  4 beta functions with: 
                l(1) =   0
                l(2) =   0
                l(3) =   1
                l(4) =   1
     Q(r) pseudized with 0 coefficients 


     PseudoPot. # 3 for Pb read from file:
     ../pseudo/Pb.pbe-dn-kjpaw_psl.0.2.2.UPF
     MD5 check sum: 9d431e6316058b74ade52399a6cf67da
     Pseudo is Projector augmented-wave + core cor, Zval = 14.0
     Generated using "atomic" code by A. Dal Corso  v.5.0.99 svn rev. 10869
     Shape of augmentation charge: PSQ
     Using radial grid of 1281 points,  6 beta functions with: 
                l(1) =   0
                l(2) =   0
                l(3) =   1
                l(4) =   1
                l(5) =   2
                l(6) =   2
     Q(r) pseudized with 0 coefficients 


     PseudoPot. # 4 for Cu read from file:
     ../pseudo/Cu.paw.z_11.ld1.psl.v1.0.0-low.upf
     MD5 check sum: 619f40885d92a09a85a8b37550532d0c
     Pseudo is Projector augmented-wave + core cor, Zval = 11.0
     Generated using &quot;atomic&quot; code by A. Dal Corso  v.6.3MaX
     Shape of augmentation charge: PSQ
     Using radial grid of 1199 points,  6 beta functions with: 
                l(1) =   0
                l(2) =   0
                l(3) =   1
                l(4) =   1
                l(5) =   2
                l(6) =   2
     Q(r) pseudized with 0 coefficients 


     atomic species   valence    mass     pseudopotential
     Cs                9.00   132.90545     Cs( 1.00)
     I                 7.00   126.90447     I ( 1.00)
     Pb               14.00   207.20000     Pb( 1.00)
     Cu               11.00    63.54600     Cu( 1.00)

     48 Sym. Ops., with inversion, found


                                    s                        frac. trans.

      isym =  1     identity                                     

 cryst.   s( 1) = (     1          0          0      )
                  (     0          1          0      )
                  (     0          0          1      )

 cart.    s( 1) = (  1.0000000  0.0000000  0.0000000 )
                  (  0.0000000  1.0000000  0.0000000 )
                  (  0.0000000  0.0000000  1.0000000 )


      isym =  2     180 deg rotation - cart. axis [0,0,1]        

 cryst.   s( 2) = (    -1          0          0      )
                  (     0         -1          0      )
                  (     0          0          1      )

 cart.    s( 2) = ( -1.0000000  0.0000000  0.0000000 )
                  (  0.0000000 -1.0000000  0.0000000 )
                  (  0.0000000  0.0000000  1.0000000 )


      isym =  3     180 deg rotation - cart. axis [0,1,0]        

 cryst.   s( 3) = (    -1          0          0      )
                  (     0          1          0      )
                  (     0          0         -1      )

 cart.    s( 3) = ( -1.0000000  0.0000000  0.0000000 )
                  (  0.0000000  1.0000000  0.0000000 )
                  (  0.0000000  0.0000000 -1.0000000 )


      isym =  4     180 deg rotation - cart. axis [1,0,0]        

 cryst.   s( 4) = (     1          0          0      )
                  (     0         -1          0      )
                  (     0          0         -1      )

 cart.    s( 4) = (  1.0000000  0.0000000  0.0000000 )
                  (  0.0000000 -1.0000000  0.0000000 )
                  (  0.0000000  0.0000000 -1.0000000 )


      isym =  5     180 deg rotation - cart. axis [1,1,0]        

 cryst.   s( 5) = (     0          1          0      )
                  (     1          0          0      )
                  (     0          0         -1      )

 cart.    s( 5) = (  0.0000000  1.0000000  0.0000000 )
                  (  1.0000000  0.0000000  0.0000000 )
                  (  0.0000000  0.0000000 -1.0000000 )


      isym =  6     180 deg rotation - cart. axis [1,-1,0]       

 cryst.   s( 6) = (     0         -1          0      )
                  (    -1          0          0      )
                  (     0          0         -1      )

 cart.    s( 6) = (  0.0000000 -1.0000000  0.0000000 )
                  ( -1.0000000  0.0000000  0.0000000 )
                  (  0.0000000  0.0000000 -1.0000000 )


      isym =  7      90 deg rotation - cart. axis [0,0,-1]       

 cryst.   s( 7) = (     0         -1          0      )
                  (     1          0          0      )
                  (     0          0          1      )

 cart.    s( 7) = (  0.0000000  1.0000000  0.0000000 )
                  ( -1.0000000  0.0000000  0.0000000 )
                  (  0.0000000  0.0000000  1.0000000 )


      isym =  8      90 deg rotation - cart. axis [0,0,1]        

 cryst.   s( 8) = (     0          1          0      )
                  (    -1          0          0      )
                  (     0          0          1      )

 cart.    s( 8) = (  0.0000000 -1.0000000  0.0000000 )
                  (  1.0000000  0.0000000  0.0000000 )
                  (  0.0000000  0.0000000  1.0000000 )


      isym =  9     180 deg rotation - cart. axis [1,0,1]        

 cryst.   s( 9) = (     0          0          1      )
                  (     0         -1          0      )
                  (     1          0          0      )

 cart.    s( 9) = (  0.0000000  0.0000000  1.0000000 )
                  (  0.0000000 -1.0000000  0.0000000 )
                  (  1.0000000  0.0000000  0.0000000 )


      isym = 10     180 deg rotation - cart. axis [-1,0,1]       

 cryst.   s(10) = (     0          0         -1      )
                  (     0         -1          0      )
                  (    -1          0          0      )

 cart.    s(10) = (  0.0000000  0.0000000 -1.0000000 )
                  (  0.0000000 -1.0000000  0.0000000 )
                  ( -1.0000000  0.0000000  0.0000000 )


      isym = 11      90 deg rotation - cart. axis [0,1,0]        

 cryst.   s(11) = (     0          0         -1      )
                  (     0          1          0      )
                  (     1          0          0      )

 cart.    s(11) = (  0.0000000  0.0000000  1.0000000 )
                  (  0.0000000  1.0000000  0.0000000 )
                  ( -1.0000000  0.0000000  0.0000000 )


      isym = 12      90 deg rotation - cart. axis [0,-1,0]       

 cryst.   s(12) = (     0          0          1      )
                  (     0          1          0      )
                  (    -1          0          0      )

 cart.    s(12) = (  0.0000000  0.0000000 -1.0000000 )
                  (  0.0000000  1.0000000  0.0000000 )
                  (  1.0000000  0.0000000  0.0000000 )


      isym = 13     180 deg rotation - cart. axis [0,1,1]        

 cryst.   s(13) = (    -1          0          0      )
                  (     0          0          1      )
                  (     0          1          0      )

 cart.    s(13) = ( -1.0000000  0.0000000  0.0000000 )
                  (  0.0000000  0.0000000  1.0000000 )
                  (  0.0000000  1.0000000  0.0000000 )


      isym = 14     180 deg rotation - cart. axis [0,1,-1]       

 cryst.   s(14) = (    -1          0          0      )
                  (     0          0         -1      )
                  (     0         -1          0      )

 cart.    s(14) = ( -1.0000000  0.0000000  0.0000000 )
                  (  0.0000000  0.0000000 -1.0000000 )
                  (  0.0000000 -1.0000000  0.0000000 )


      isym = 15      90 deg rotation - cart. axis [-1,0,0]       

 cryst.   s(15) = (     1          0          0      )
                  (     0          0         -1      )
                  (     0          1          0      )

 cart.    s(15) = (  1.0000000  0.0000000  0.0000000 )
                  (  0.0000000  0.0000000  1.0000000 )
                  (  0.0000000 -1.0000000  0.0000000 )


      isym = 16      90 deg rotation - cart. axis [1,0,0]        

 cryst.   s(16) = (     1          0          0      )
                  (     0          0          1      )
                  (     0         -1          0      )

 cart.    s(16) = (  1.0000000  0.0000000  0.0000000 )
                  (  0.0000000  0.0000000 -1.0000000 )
                  (  0.0000000  1.0000000  0.0000000 )


      isym = 17     120 deg rotation - cart. axis [-1,-1,-1]     

 cryst.   s(17) = (     0          0          1      )
                  (     1          0          0      )
                  (     0          1          0      )

 cart.    s(17) = (  0.0000000  1.0000000  0.0000000 )
                  (  0.0000000  0.0000000  1.0000000 )
                  (  1.0000000  0.0000000  0.0000000 )


      isym = 18     120 deg rotation - cart. axis [-1,1,1]       

 cryst.   s(18) = (     0          0         -1      )
                  (    -1          0          0      )
                  (     0          1          0      )

 cart.    s(18) = (  0.0000000 -1.0000000  0.0000000 )
                  (  0.0000000  0.0000000  1.0000000 )
                  ( -1.0000000  0.0000000  0.0000000 )


      isym = 19     120 deg rotation - cart. axis [1,1,-1]       

 cryst.   s(19) = (     0          0         -1      )
                  (     1          0          0      )
                  (     0         -1          0      )

 cart.    s(19) = (  0.0000000  1.0000000  0.0000000 )
                  (  0.0000000  0.0000000 -1.0000000 )
                  ( -1.0000000  0.0000000  0.0000000 )


      isym = 20     120 deg rotation - cart. axis [1,-1,1]       

 cryst.   s(20) = (     0          0          1      )
                  (    -1          0          0      )
                  (     0         -1          0      )

 cart.    s(20) = (  0.0000000 -1.0000000  0.0000000 )
                  (  0.0000000  0.0000000 -1.0000000 )
                  (  1.0000000  0.0000000  0.0000000 )


      isym = 21     120 deg rotation - cart. axis [1,1,1]        

 cryst.   s(21) = (     0          1          0      )
                  (     0          0          1      )
                  (     1          0          0      )

 cart.    s(21) = (  0.0000000  0.0000000  1.0000000 )
                  (  1.0000000  0.0000000  0.0000000 )
                  (  0.0000000  1.0000000  0.0000000 )


      isym = 22     120 deg rotation - cart. axis [-1,1,-1]      

 cryst.   s(22) = (     0         -1          0      )
                  (     0          0         -1      )
                  (     1          0          0      )

 cart.    s(22) = (  0.0000000  0.0000000  1.0000000 )
                  ( -1.0000000  0.0000000  0.0000000 )
                  (  0.0000000 -1.0000000  0.0000000 )


      isym = 23     120 deg rotation - cart. axis [1,-1,-1]      

 cryst.   s(23) = (     0         -1          0      )
                  (     0          0          1      )
                  (    -1          0          0      )

 cart.    s(23) = (  0.0000000  0.0000000 -1.0000000 )
                  ( -1.0000000  0.0000000  0.0000000 )
                  (  0.0000000  1.0000000  0.0000000 )


      isym = 24     120 deg rotation - cart. axis [-1,-1,1]      

 cryst.   s(24) = (     0          1          0      )
                  (     0          0         -1      )
                  (    -1          0          0      )

 cart.    s(24) = (  0.0000000  0.0000000 -1.0000000 )
                  (  1.0000000  0.0000000  0.0000000 )
                  (  0.0000000 -1.0000000  0.0000000 )


      isym = 25     inversion                                    

 cryst.   s(25) = (    -1          0          0      )
                  (     0         -1          0      )
                  (     0          0         -1      )

 cart.    s(25) = ( -1.0000000  0.0000000  0.0000000 )
                  (  0.0000000 -1.0000000  0.0000000 )
                  (  0.0000000  0.0000000 -1.0000000 )


      isym = 26     inv. 180 deg rotation - cart. axis [0,0,1]   

 cryst.   s(26) = (     1          0          0      )
                  (     0          1          0      )
                  (     0          0         -1      )

 cart.    s(26) = (  1.0000000  0.0000000  0.0000000 )
                  (  0.0000000  1.0000000  0.0000000 )
                  (  0.0000000  0.0000000 -1.0000000 )


      isym = 27     inv. 180 deg rotation - cart. axis [0,1,0]   

 cryst.   s(27) = (     1          0          0      )
                  (     0         -1          0      )
                  (     0          0          1      )

 cart.    s(27) = (  1.0000000  0.0000000  0.0000000 )
                  (  0.0000000 -1.0000000  0.0000000 )
                  (  0.0000000  0.0000000  1.0000000 )


      isym = 28     inv. 180 deg rotation - cart. axis [1,0,0]   

 cryst.   s(28) = (    -1          0          0      )
                  (     0          1          0      )
                  (     0          0          1      )

 cart.    s(28) = ( -1.0000000  0.0000000  0.0000000 )
                  (  0.0000000  1.0000000  0.0000000 )
                  (  0.0000000  0.0000000  1.0000000 )


      isym = 29     inv. 180 deg rotation - cart. axis [1,1,0]   

 cryst.   s(29) = (     0         -1          0      )
                  (    -1          0          0      )
                  (     0          0          1      )

 cart.    s(29) = (  0.0000000 -1.0000000  0.0000000 )
                  ( -1.0000000  0.0000000  0.0000000 )
                  (  0.0000000  0.0000000  1.0000000 )


      isym = 30     inv. 180 deg rotation - cart. axis [1,-1,0]  

 cryst.   s(30) = (     0          1          0      )
                  (     1          0          0      )
                  (     0          0          1      )

 cart.    s(30) = (  0.0000000  1.0000000  0.0000000 )
                  (  1.0000000  0.0000000  0.0000000 )
                  (  0.0000000  0.0000000  1.0000000 )


      isym = 31     inv.  90 deg rotation - cart. axis [0,0,-1]  

 cryst.   s(31) = (     0          1          0      )
                  (    -1          0          0      )
                  (     0          0         -1      )

 cart.    s(31) = (  0.0000000 -1.0000000  0.0000000 )
                  (  1.0000000  0.0000000  0.0000000 )
                  (  0.0000000  0.0000000 -1.0000000 )


      isym = 32     inv.  90 deg rotation - cart. axis [0,0,1]   

 cryst.   s(32) = (     0         -1          0      )
                  (     1          0          0      )
                  (     0          0         -1      )

 cart.    s(32) = (  0.0000000  1.0000000  0.0000000 )
                  ( -1.0000000  0.0000000  0.0000000 )
                  (  0.0000000  0.0000000 -1.0000000 )


      isym = 33     inv. 180 deg rotation - cart. axis [1,0,1]   

 cryst.   s(33) = (     0          0         -1      )
                  (     0          1          0      )
                  (    -1          0          0      )

 cart.    s(33) = (  0.0000000  0.0000000 -1.0000000 )
                  (  0.0000000  1.0000000  0.0000000 )
                  ( -1.0000000  0.0000000  0.0000000 )


      isym = 34     inv. 180 deg rotation - cart. axis [-1,0,1]  

 cryst.   s(34) = (     0          0          1      )
                  (     0          1          0      )
                  (     1          0          0      )

 cart.    s(34) = (  0.0000000  0.0000000  1.0000000 )
                  (  0.0000000  1.0000000  0.0000000 )
                  (  1.0000000  0.0000000  0.0000000 )


      isym = 35     inv.  90 deg rotation - cart. axis [0,1,0]   

 cryst.   s(35) = (     0          0          1      )
                  (     0         -1          0      )
                  (    -1          0          0      )

 cart.    s(35) = (  0.0000000  0.0000000 -1.0000000 )
                  (  0.0000000 -1.0000000  0.0000000 )
                  (  1.0000000  0.0000000  0.0000000 )


      isym = 36     inv.  90 deg rotation - cart. axis [0,-1,0]  

 cryst.   s(36) = (     0          0         -1      )
                  (     0         -1          0      )
                  (     1          0          0      )

 cart.    s(36) = (  0.0000000  0.0000000  1.0000000 )
                  (  0.0000000 -1.0000000  0.0000000 )
                  ( -1.0000000  0.0000000  0.0000000 )


      isym = 37     inv. 180 deg rotation - cart. axis [0,1,1]   

 cryst.   s(37) = (     1          0          0      )
                  (     0          0         -1      )
                  (     0         -1          0      )

 cart.    s(37) = (  1.0000000  0.0000000  0.0000000 )
                  (  0.0000000  0.0000000 -1.0000000 )
                  (  0.0000000 -1.0000000  0.0000000 )


      isym = 38     inv. 180 deg rotation - cart. axis [0,1,-1]  

 cryst.   s(38) = (     1          0          0      )
                  (     0          0          1      )
                  (     0          1          0      )

 cart.    s(38) = (  1.0000000  0.0000000  0.0000000 )
                  (  0.0000000  0.0000000  1.0000000 )
                  (  0.0000000  1.0000000  0.0000000 )


      isym = 39     inv.  90 deg rotation - cart. axis [-1,0,0]  

 cryst.   s(39) = (    -1          0          0      )
                  (     0          0          1      )
                  (     0         -1          0      )

 cart.    s(39) = ( -1.0000000  0.0000000  0.0000000 )
                  (  0.0000000  0.0000000 -1.0000000 )
                  (  0.0000000  1.0000000  0.0000000 )


      isym = 40     inv.  90 deg rotation - cart. axis [1,0,0]   

 cryst.   s(40) = (    -1          0          0      )
                  (     0          0         -1      )
                  (     0          1          0      )

 cart.    s(40) = ( -1.0000000  0.0000000  0.0000000 )
                  (  0.0000000  0.0000000  1.0000000 )
                  (  0.0000000 -1.0000000  0.0000000 )


      isym = 41     inv. 120 deg rotation - cart. axis [-1,-1,-1]

 cryst.   s(41) = (     0          0         -1      )
                  (    -1          0          0      )
                  (     0         -1          0      )

 cart.    s(41) = (  0.0000000 -1.0000000  0.0000000 )
                  (  0.0000000  0.0000000 -1.0000000 )
                  ( -1.0000000  0.0000000  0.0000000 )


      isym = 42     inv. 120 deg rotation - cart. axis [-1,1,1]  

 cryst.   s(42) = (     0          0          1      )
                  (     1          0          0      )
                  (     0         -1          0      )

 cart.    s(42) = (  0.0000000  1.0000000  0.0000000 )
                  (  0.0000000  0.0000000 -1.0000000 )
                  (  1.0000000  0.0000000  0.0000000 )


      isym = 43     inv. 120 deg rotation - cart. axis [1,1,-1]  

 cryst.   s(43) = (     0          0          1      )
                  (    -1          0          0      )
                  (     0          1          0      )

 cart.    s(43) = (  0.0000000 -1.0000000  0.0000000 )
                  (  0.0000000  0.0000000  1.0000000 )
                  (  1.0000000  0.0000000  0.0000000 )


      isym = 44     inv. 120 deg rotation - cart. axis [1,-1,1]  

 cryst.   s(44) = (     0          0         -1      )
                  (     1          0          0      )
                  (     0          1          0      )

 cart.    s(44) = (  0.0000000  1.0000000  0.0000000 )
                  (  0.0000000  0.0000000  1.0000000 )
                  ( -1.0000000  0.0000000  0.0000000 )


      isym = 45     inv. 120 deg rotation - cart. axis [1,1,1]   

 cryst.   s(45) = (     0         -1          0      )
                  (     0          0         -1      )
                  (    -1          0          0      )

 cart.    s(45) = (  0.0000000  0.0000000 -1.0000000 )
                  ( -1.0000000  0.0000000  0.0000000 )
                  (  0.0000000 -1.0000000  0.0000000 )


      isym = 46     inv. 120 deg rotation - cart. axis [-1,1,-1] 

 cryst.   s(46) = (     0          1          0      )
                  (     0          0          1      )
                  (    -1          0          0      )

 cart.    s(46) = (  0.0000000  0.0000000 -1.0000000 )
                  (  1.0000000  0.0000000  0.0000000 )
                  (  0.0000000  1.0000000  0.0000000 )


      isym = 47     inv. 120 deg rotation - cart. axis [1,-1,-1] 

 cryst.   s(47) = (     0          1          0      )
                  (     0          0         -1      )
                  (     1          0          0      )

 cart.    s(47) = (  0.0000000  0.0000000  1.0000000 )
                  (  1.0000000  0.0000000  0.0000000 )
                  (  0.0000000 -1.0000000  0.0000000 )


      isym = 48     inv. 120 deg rotation - cart. axis [-1,-1,1] 

 cryst.   s(48) = (     0         -1          0      )
                  (     0          0          1      )
                  (     1          0          0      )

 cart.    s(48) = (  0.0000000  0.0000000  1.0000000 )
                  ( -1.0000000  0.0000000  0.0000000 )
                  (  0.0000000  1.0000000  0.0000000 )


     point group O_h (m-3m) 
     there are 10 classes
     the character table:

       E     8C3   3C2   6C4   6C2'  i     8S6   3s_h  6S4   6s_d 
A_1g   1.00  1.00  1.00  1.00  1.00  1.00  1.00  1.00  1.00  1.00
A_2g   1.00  1.00  1.00 -1.00 -1.00  1.00  1.00  1.00 -1.00 -1.00
E_g    2.00 -1.00  2.00  0.00  0.00  2.00 -1.00  2.00  0.00  0.00
T_1g   3.00  0.00 -1.00  1.00 -1.00  3.00  0.00 -1.00  1.00 -1.00
T_2g   3.00  0.00 -1.00 -1.00  1.00  3.00  0.00 -1.00 -1.00  1.00
A_1u   1.00  1.00  1.00  1.00  1.00 -1.00 -1.00 -1.00 -1.00 -1.00
A_2u   1.00  1.00  1.00 -1.00 -1.00 -1.00 -1.00 -1.00  1.00  1.00
E_u    2.00 -1.00  2.00  0.00  0.00 -2.00  1.00 -2.00  0.00  0.00
T_1u   3.00  0.00 -1.00  1.00 -1.00 -3.00  0.00  1.00 -1.00  1.00
T_2u   3.00  0.00 -1.00 -1.00  1.00 -3.00  0.00  1.00  1.00 -1.00

     the symmetry operations in each class and the name of the first element:

     E        1
          identity                                               
     8C3     17   19   20   18   24   21   22   23
          120 deg rotation - cart. axis [-1,-1,-1]               
     3C2      2    4    3
          180 deg rotation - cart. axis [0,0,1]                  
     6C4      7    8   15   16   12   11
           90 deg rotation - cart. axis [0,0,-1]                 
     6C2'     5    6   14   13   10    9
          180 deg rotation - cart. axis [1,1,0]                  
     i       25
          inversion                                              
     8S6     41   43   44   42   48   45   46   47
          inv. 120 deg rotation - cart. axis [-1,-1,-1]          
     3s_h    26   28   27
          inv. 180 deg rotation - cart. axis [0,0,1]             
     6S4     31   32   39   40   36   35
          inv.  90 deg rotation - cart. axis [0,0,-1]            
     6s_d    29   30   38   37   34   33
          inv. 180 deg rotation - cart. axis [1,1,0]             

   Cartesian axes

     site n.     atom                  positions (alat units)
         1        Cs     tau(   1) = (   0.2472740   0.2472740   0.2472740  )
         2        Cs     tau(   2) = (   0.7527260   0.2472740   0.7527260  )
         3        Cs     tau(   3) = (   0.2472740   0.7527260   0.7527260  )
         4        Cs     tau(   4) = (   0.7527260   0.7527260   0.2472740  )
         5        Cs     tau(   5) = (   0.2472740   0.2472740   0.7527260  )
         6        Cs     tau(   6) = (   0.2472740   0.7527260   0.2472740  )
         7        Cs     tau(   7) = (   0.7527260   0.2472740   0.2472740  )
         8        Cs     tau(   8) = (   0.7527260   0.7527260   0.7527260  )
         9        Cu     tau(   9) = (   0.0000000   0.0000000   0.0000000  )
        10        Pb     tau(  10) = (   0.5000000   0.0000000   0.0000000  )
        11        Pb     tau(  11) = (   0.0000000   0.0000000   0.5000000  )
        12        Pb     tau(  12) = (   0.0000000   0.5000000   0.0000000  )
        13        Pb     tau(  13) = (   0.5000000   0.0000000   0.5000000  )
        14        Pb     tau(  14) = (   0.0000000   0.5000000   0.5000000  )
        15        Pb     tau(  15) = (   0.5000000   0.5000000   0.0000000  )
        16        Pb     tau(  16) = (   0.5000000   0.5000000   0.5000000  )
        17        I      tau(  17) = (   0.7674240   0.0000000   0.0000000  )
        18        I      tau(  18) = (   0.2325760   0.0000000   0.0000000  )
        19        I      tau(  19) = (   0.0000000   0.0000000   0.2325760  )
        20        I      tau(  20) = (   0.0000000   0.0000000   0.7674240  )
        21        I      tau(  21) = (   0.0000000   0.7674240   0.0000000  )
        22        I      tau(  22) = (   0.0000000   0.2325760   0.0000000  )
        23        I      tau(  23) = (   0.5000000   0.0000000   0.2494570  )
        24        I      tau(  24) = (   0.5000000   0.0000000   0.7505430  )
        25        I      tau(  25) = (   0.2494570   0.5000000   0.0000000  )
        26        I      tau(  26) = (   0.7505430   0.5000000   0.0000000  )
        27        I      tau(  27) = (   0.0000000   0.2494570   0.5000000  )
        28        I      tau(  28) = (   0.0000000   0.7505430   0.5000000  )
        29        I      tau(  29) = (   0.0000000   0.5000000   0.7505430  )
        30        I      tau(  30) = (   0.0000000   0.5000000   0.2494570  )
        31        I      tau(  31) = (   0.5000000   0.2494570   0.0000000  )
        32        I      tau(  32) = (   0.5000000   0.7505430   0.0000000  )
        33        I      tau(  33) = (   0.2494570   0.0000000   0.5000000  )
        34        I      tau(  34) = (   0.7505430   0.0000000   0.5000000  )
        35        I      tau(  35) = (   0.5000000   0.7500300   0.5000000  )
        36        I      tau(  36) = (   0.5000000   0.2499700   0.5000000  )
        37        I      tau(  37) = (   0.7500300   0.5000000   0.5000000  )
        38        I      tau(  38) = (   0.2499700   0.5000000   0.5000000  )
        39        I      tau(  39) = (   0.5000000   0.5000000   0.2499700  )
        40        I      tau(  40) = (   0.5000000   0.5000000   0.7500300  )

   Crystallographic axes

     site n.     atom                  positions (cryst. coord.)
         1        Cs     tau(   1) = (  0.2472740  0.2472740  0.2472740  )
         2        Cs     tau(   2) = (  0.7527260  0.2472740  0.7527260  )
         3        Cs     tau(   3) = (  0.2472740  0.7527260  0.7527260  )
         4        Cs     tau(   4) = (  0.7527260  0.7527260  0.2472740  )
         5        Cs     tau(   5) = (  0.2472740  0.2472740  0.7527260  )
         6        Cs     tau(   6) = (  0.2472740  0.7527260  0.2472740  )
         7        Cs     tau(   7) = (  0.7527260  0.2472740  0.2472740  )
         8        Cs     tau(   8) = (  0.7527260  0.7527260  0.7527260  )
         9        Cu     tau(   9) = (  0.0000000  0.0000000  0.0000000  )
        10        Pb     tau(  10) = (  0.5000000  0.0000000  0.0000000  )
        11        Pb     tau(  11) = (  0.0000000  0.0000000  0.5000000  )
        12        Pb     tau(  12) = (  0.0000000  0.5000000  0.0000000  )
        13        Pb     tau(  13) = (  0.5000000  0.0000000  0.5000000  )
        14        Pb     tau(  14) = (  0.0000000  0.5000000  0.5000000  )
        15        Pb     tau(  15) = (  0.5000000  0.5000000  0.0000000  )
        16        Pb     tau(  16) = (  0.5000000  0.5000000  0.5000000  )
        17        I      tau(  17) = (  0.7674240  0.0000000  0.0000000  )
        18        I      tau(  18) = (  0.2325760  0.0000000  0.0000000  )
        19        I      tau(  19) = (  0.0000000  0.0000000  0.2325760  )
        20        I      tau(  20) = (  0.0000000  0.0000000  0.7674240  )
        21        I      tau(  21) = (  0.0000000  0.7674240  0.0000000  )
        22        I      tau(  22) = (  0.0000000  0.2325760  0.0000000  )
        23        I      tau(  23) = (  0.5000000  0.0000000  0.2494570  )
        24        I      tau(  24) = (  0.5000000  0.0000000  0.7505430  )
        25        I      tau(  25) = (  0.2494570  0.5000000  0.0000000  )
        26        I      tau(  26) = (  0.7505430  0.5000000  0.0000000  )
        27        I      tau(  27) = (  0.0000000  0.2494570  0.5000000  )
        28        I      tau(  28) = (  0.0000000  0.7505430  0.5000000  )
        29        I      tau(  29) = (  0.0000000  0.5000000  0.7505430  )
        30        I      tau(  30) = (  0.0000000  0.5000000  0.2494570  )
        31        I      tau(  31) = (  0.5000000  0.2494570  0.0000000  )
        32        I      tau(  32) = (  0.5000000  0.7505430  0.0000000  )
        33        I      tau(  33) = (  0.2494570  0.0000000  0.5000000  )
        34        I      tau(  34) = (  0.7505430  0.0000000  0.5000000  )
        35        I      tau(  35) = (  0.5000000  0.7500300  0.5000000  )
        36        I      tau(  36) = (  0.5000000  0.2499700  0.5000000  )
        37        I      tau(  37) = (  0.7500300  0.5000000  0.5000000  )
        38        I      tau(  38) = (  0.2499700  0.5000000  0.5000000  )
        39        I      tau(  39) = (  0.5000000  0.5000000  0.2499700  )
        40        I      tau(  40) = (  0.5000000  0.5000000  0.7500300  )

     number of k points=    10  Marzari-Vanderbilt smearing, width (Ry)=  0.1470
                       cart. coord. in units 2pi/alat
        k(    1) = (   0.0000000   0.0000000   0.0000000), wk =   0.0312500
        k(    2) = (   0.0000000   0.0000000   0.2500000), wk =   0.1875000
        k(    3) = (   0.0000000   0.0000000  -0.5000000), wk =   0.0937500
        k(    4) = (   0.0000000   0.2500000   0.2500000), wk =   0.3750000
        k(    5) = (   0.0000000   0.2500000  -0.5000000), wk =   0.3750000
        k(    6) = (   0.0000000  -0.5000000  -0.5000000), wk =   0.0937500
        k(    7) = (   0.2500000   0.2500000   0.2500000), wk =   0.2500000
        k(    8) = (   0.2500000   0.2500000  -0.5000000), wk =   0.3750000
        k(    9) = (   0.2500000  -0.5000000  -0.5000000), wk =   0.1875000
        k(   10) = (  -0.5000000  -0.5000000  -0.5000000), wk =   0.0312500

                       cryst. coord.
        k(    1) = (   0.0000000   0.0000000   0.0000000), wk =   0.0312500
        k(    2) = (   0.0000000   0.0000000   0.2500000), wk =   0.1875000
        k(    3) = (   0.0000000   0.0000000  -0.5000000), wk =   0.0937500
        k(    4) = (   0.0000000   0.2500000   0.2500000), wk =   0.3750000
        k(    5) = (   0.0000000   0.2500000  -0.5000000), wk =   0.3750000
        k(    6) = (   0.0000000  -0.5000000  -0.5000000), wk =   0.0937500
        k(    7) = (   0.2500000   0.2500000   0.2500000), wk =   0.2500000
        k(    8) = (   0.2500000   0.2500000  -0.5000000), wk =   0.3750000
        k(    9) = (   0.2500000  -0.5000000  -0.5000000), wk =   0.1875000
        k(   10) = (  -0.5000000  -0.5000000  -0.5000000), wk =   0.0312500

     Dense  grid:  1249289 G-vectors     FFT dimensions: ( 135, 135, 135)

     Smooth grid:   441943 G-vectors     FFT dimensions: (  96,  96,  96)

     Dynamical RAM for                 wfc:      44.23 MB

     Dynamical RAM for     wfc (w. buffer):     486.53 MB

     Dynamical RAM for           str. fact:      19.06 MB

     Dynamical RAM for           local pot:       0.00 MB

     Dynamical RAM for          nlocal pot:     101.10 MB

     Dynamical RAM for                qrad:      11.49 MB

     Dynamical RAM for          rho,v,vnew:      28.48 MB

     Dynamical RAM for               rhoin:       9.49 MB

     Dynamical RAM for            rho*nmix:      76.25 MB

     Dynamical RAM for           G-vectors:      18.71 MB

     Dynamical RAM for          h,s,v(r/c):       8.07 MB

     Dynamical RAM for          <psi|beta>:       1.54 MB

     Dynamical RAM for                 psi:      88.46 MB

     Dynamical RAM for                hpsi:      88.46 MB

     Dynamical RAM for                spsi:      88.46 MB

     Dynamical RAM for      wfcinit/wfcrot:      89.47 MB

     Dynamical RAM for           addusdens:    1000.80 MB

     Dynamical RAM for          addusforce:    1222.50 MB

     Dynamical RAM for         addusstress:     957.91 MB

     Estimated static dynamical RAM per process >     722.33 MB

     Estimated max dynamical RAM per process >       1.97 GB

     Estimated total dynamical RAM >       7.89 GB

     Initial potential from superposition of free atoms

     starting charge     348.6664, renormalised to     349.0000
     Starting wfcs are  272 randomized atomic wfcs
     Checking if some PAW data can be deallocated... 
       PAW data deallocated on    1 nodes for type:  2
       PAW data deallocated on    2 nodes for type:  3
       PAW data deallocated on    3 nodes for type:  4

     total cpu time spent up to now is       34.8 secs

     Self-consistent Calculation
[tb_dev] Currently allocated     8.67E+00 Mbytes, locked:    0 /   6
[tb_pin] Currently allocated     0.00E+00 Mbytes, locked:    0 /   0

     iteration #  1     ecut=    40.00 Ry     beta= 0.40
     Davidson diagonalization with overlap

---- Real-time Memory Report at c_bands before calling an iterative solver
          1512 MiB given to the printing process from OS
             0 MiB allocation reported by mallinfo(arena+hblkhd)
         20549 MiB available memory on the node where the printing process lives
     GPU memory used/free/total (MiB): 8229 / 3699 / 11928
------------------
     ethr =  1.00E-02,  avg # of iterations =  3.5

     Threshold (ethr) on eigenvalues was too large:
     Diagonalizing with lowered threshold

     Davidson diagonalization with overlap

---- Real-time Memory Report at c_bands before calling an iterative solver
          1544 MiB given to the printing process from OS
             0 MiB allocation reported by mallinfo(arena+hblkhd)
         20433 MiB available memory on the node where the printing process lives
     GPU memory used/free/total (MiB): 8589 / 3339 / 11928
------------------
     ethr =  3.54E-04,  avg # of iterations = 10.5

     total cpu time spent up to now is      210.9 secs

     total energy              =  -15906.38903327 Ry
     estimated scf accuracy    <       1.21086441 Ry
[tb_dev] Currently allocated     3.05E-04 Mbytes, locked:    0 /   2
[tb_pin] Currently allocated     0.00E+00 Mbytes, locked:    0 /   0

     iteration #  2     ecut=    40.00 Ry     beta= 0.40
     Davidson diagonalization with overlap

---- Real-time Memory Report at c_bands before calling an iterative solver
          1566 MiB given to the printing process from OS
             0 MiB allocation reported by mallinfo(arena+hblkhd)
         20330 MiB available memory on the node where the printing process lives
     GPU memory used/free/total (MiB): 8725 / 3203 / 11928
------------------
     ethr =  3.47E-04,  avg # of iterations =  4.4

     total cpu time spent up to now is      299.6 secs

     total energy              =  -15906.72879591 Ry
     estimated scf accuracy    <       2.15141770 Ry
[tb_dev] Currently allocated     3.05E-04 Mbytes, locked:    0 /   2
[tb_pin] Currently allocated     0.00E+00 Mbytes, locked:    0 /   0

     iteration #  3     ecut=    40.00 Ry     beta= 0.40
     Davidson diagonalization with overlap

---- Real-time Memory Report at c_bands before calling an iterative solver
          1570 MiB given to the printing process from OS
             0 MiB allocation reported by mallinfo(arena+hblkhd)
         20303 MiB available memory on the node where the printing process lives
     GPU memory used/free/total (MiB): 8725 / 3203 / 11928
------------------
     ethr =  3.47E-04,  avg # of iterations =  2.8

     total cpu time spent up to now is      385.6 secs

     total energy              =  -15906.73602941 Ry
     estimated scf accuracy    <       1.53302922 Ry
[tb_dev] Currently allocated     3.05E-04 Mbytes, locked:    0 /   2
[tb_pin] Currently allocated     0.00E+00 Mbytes, locked:    0 /   0

     iteration #  4     ecut=    40.00 Ry     beta= 0.40
     Davidson diagonalization with overlap

---- Real-time Memory Report at c_bands before calling an iterative solver
          1573 MiB given to the printing process from OS
             0 MiB allocation reported by mallinfo(arena+hblkhd)
         20296 MiB available memory on the node where the printing process lives
     GPU memory used/free/total (MiB): 8725 / 3203 / 11928
------------------
     ethr =  3.47E-04,  avg # of iterations =  1.8

     total cpu time spent up to now is      465.3 secs

     total energy              =  -15906.84451535 Ry
     estimated scf accuracy    <       0.15395803 Ry
[tb_dev] Currently allocated     3.05E-04 Mbytes, locked:    0 /   2
[tb_pin] Currently allocated     0.00E+00 Mbytes, locked:    0 /   0

     iteration #  5     ecut=    40.00 Ry     beta= 0.40
     Davidson diagonalization with overlap

---- Real-time Memory Report at c_bands before calling an iterative solver
          1577 MiB given to the printing process from OS
             0 MiB allocation reported by mallinfo(arena+hblkhd)
         20237 MiB available memory on the node where the printing process lives
     GPU memory used/free/total (MiB): 8725 / 3203 / 11928
------------------
     c_bands:  2 eigenvalues not converged
     c_bands:  1 eigenvalues not converged
     ethr =  4.41E-05,  avg # of iterations = 11.4

     total cpu time spent up to now is      576.3 secs

     total energy              =  -15906.49024264 Ry
     estimated scf accuracy    <       6.43202057 Ry
[tb_dev] Currently allocated     3.05E-04 Mbytes, locked:    0 /   2
[tb_pin] Currently allocated     0.00E+00 Mbytes, locked:    0 /   0

     iteration #  6     ecut=    40.00 Ry     beta= 0.40
     Davidson diagonalization with overlap

---- Real-time Memory Report at c_bands before calling an iterative solver
          1580 MiB given to the printing process from OS
             0 MiB allocation reported by mallinfo(arena+hblkhd)
         20217 MiB available memory on the node where the printing process lives
     GPU memory used/free/total (MiB): 8725 / 3203 / 11928
------------------
     ethr =  4.41E-05,  avg # of iterations =  5.7

     total cpu time spent up to now is      669.1 secs

     total energy              =  -15906.82086009 Ry
     estimated scf accuracy    <       0.80924816 Ry
[tb_dev] Currently allocated     3.05E-04 Mbytes, locked:    0 /   2
[tb_pin] Currently allocated     0.00E+00 Mbytes, locked:    0 /   0

     iteration #  7     ecut=    40.00 Ry     beta= 0.40
     Davidson diagonalization with overlap

---- Real-time Memory Report at c_bands before calling an iterative solver
          1585 MiB given to the printing process from OS
             0 MiB allocation reported by mallinfo(arena+hblkhd)
         20198 MiB available memory on the node where the printing process lives
     GPU memory used/free/total (MiB): 8725 / 3203 / 11928
------------------
     ethr =  4.41E-05,  avg # of iterations =  3.5

     total cpu time spent up to now is      752.2 secs

     total energy              =  -15906.84313165 Ry
     estimated scf accuracy    <       1.14192382 Ry
[tb_dev] Currently allocated     3.05E-04 Mbytes, locked:    0 /   2
[tb_pin] Currently allocated     0.00E+00 Mbytes, locked:    0 /   0

     iteration #  8     ecut=    40.00 Ry     beta= 0.40
     Davidson diagonalization with overlap

---- Real-time Memory Report at c_bands before calling an iterative solver
          1590 MiB given to the printing process from OS
             0 MiB allocation reported by mallinfo(arena+hblkhd)
         20178 MiB available memory on the node where the printing process lives
     GPU memory used/free/total (MiB): 8725 / 3203 / 11928
------------------
     ethr =  4.41E-05,  avg # of iterations =  2.0

     total cpu time spent up to now is      830.9 secs

     total energy              =  -15906.89518603 Ry
     estimated scf accuracy    <       0.10259553 Ry
[tb_dev] Currently allocated     3.05E-04 Mbytes, locked:    0 /   2
[tb_pin] Currently allocated     0.00E+00 Mbytes, locked:    0 /   0

     iteration #  9     ecut=    40.00 Ry     beta= 0.40
     Davidson diagonalization with overlap

---- Real-time Memory Report at c_bands before calling an iterative solver
          1595 MiB given to the printing process from OS
             0 MiB allocation reported by mallinfo(arena+hblkhd)
         20163 MiB available memory on the node where the printing process lives
     GPU memory used/free/total (MiB): 8725 / 3203 / 11928
------------------
     ethr =  2.94E-05,  avg # of iterations =  1.2

     total cpu time spent up to now is      901.6 secs

     total energy              =  -15906.89114343 Ry
     estimated scf accuracy    <       0.12427739 Ry
[tb_dev] Currently allocated     3.05E-04 Mbytes, locked:    0 /   2
[tb_pin] Currently allocated     0.00E+00 Mbytes, locked:    0 /   0

     iteration # 10     ecut=    40.00 Ry     beta= 0.40
     Davidson diagonalization with overlap

---- Real-time Memory Report at c_bands before calling an iterative solver
          1600 MiB given to the printing process from OS
             0 MiB allocation reported by mallinfo(arena+hblkhd)
         20128 MiB available memory on the node where the printing process lives
     GPU memory used/free/total (MiB): 8725 / 3203 / 11928
------------------
     ethr =  2.94E-05,  avg # of iterations =  1.0

     total cpu time spent up to now is      970.3 secs

     total energy              =  -15906.89199975 Ry
     estimated scf accuracy    <       0.02296217 Ry
[tb_dev] Currently allocated     3.05E-04 Mbytes, locked:    0 /   2
[tb_pin] Currently allocated     0.00E+00 Mbytes, locked:    0 /   0

     iteration # 11     ecut=    40.00 Ry     beta= 0.40
     Davidson diagonalization with overlap

---- Real-time Memory Report at c_bands before calling an iterative solver
          1602 MiB given to the printing process from OS
             0 MiB allocation reported by mallinfo(arena+hblkhd)
         20128 MiB available memory on the node where the printing process lives
     GPU memory used/free/total (MiB): 8725 / 3203 / 11928
------------------
     c_bands:  1 eigenvalues not converged
     c_bands:  2 eigenvalues not converged
     ethr =  6.58E-06,  avg # of iterations = 10.9

     total cpu time spent up to now is     1066.9 secs

     total energy              =  -15906.89225237 Ry
     estimated scf accuracy    <       0.00439135 Ry
[tb_dev] Currently allocated     3.05E-04 Mbytes, locked:    0 /   2
[tb_pin] Currently allocated     0.00E+00 Mbytes, locked:    0 /   0

     iteration # 12     ecut=    40.00 Ry     beta= 0.40
     Davidson diagonalization with overlap

---- Real-time Memory Report at c_bands before calling an iterative solver
          1602 MiB given to the printing process from OS
             0 MiB allocation reported by mallinfo(arena+hblkhd)
         20126 MiB available memory on the node where the printing process lives
     GPU memory used/free/total (MiB): 8725 / 3203 / 11928
------------------
     c_bands:  1 eigenvalues not converged
     c_bands:  3 eigenvalues not converged
     ethr =  1.26E-06,  avg # of iterations = 11.5

     total cpu time spent up to now is     1174.7 secs

     total energy              =  -15906.89282561 Ry
     estimated scf accuracy    <       0.00002926 Ry
[tb_dev] Currently allocated     3.05E-04 Mbytes, locked:    0 /   2
[tb_pin] Currently allocated     0.00E+00 Mbytes, locked:    0 /   0

     iteration # 13     ecut=    40.00 Ry     beta= 0.40
     Davidson diagonalization with overlap

---- Real-time Memory Report at c_bands before calling an iterative solver
          1602 MiB given to the printing process from OS
             0 MiB allocation reported by mallinfo(arena+hblkhd)
         20132 MiB available memory on the node where the printing process lives
     GPU memory used/free/total (MiB): 8725 / 3203 / 11928
------------------
     ethr =  8.38E-09,  avg # of iterations =  9.8

     total cpu time spent up to now is     1343.4 secs

     total energy              =  -15906.89296748 Ry
     estimated scf accuracy    <       0.00008162 Ry
[tb_dev] Currently allocated     3.05E-04 Mbytes, locked:    0 /   2
[tb_pin] Currently allocated     0.00E+00 Mbytes, locked:    0 /   0

     iteration # 14     ecut=    40.00 Ry     beta= 0.40
     Davidson diagonalization with overlap

---- Real-time Memory Report at c_bands before calling an iterative solver
          1604 MiB given to the printing process from OS
             0 MiB allocation reported by mallinfo(arena+hblkhd)
         20096 MiB available memory on the node where the printing process lives
     GPU memory used/free/total (MiB): 8727 / 3201 / 11928
------------------
     ethr =  8.38E-09,  avg # of iterations =  1.0

     total cpu time spent up to now is     1412.1 secs

     total energy              =  -15906.89296688 Ry
     estimated scf accuracy    <       0.00008197 Ry
[tb_dev] Currently allocated     3.05E-04 Mbytes, locked:    0 /   2
[tb_pin] Currently allocated     0.00E+00 Mbytes, locked:    0 /   0

     iteration # 15     ecut=    40.00 Ry     beta= 0.40
     Davidson diagonalization with overlap

---- Real-time Memory Report at c_bands before calling an iterative solver
          1604 MiB given to the printing process from OS
             0 MiB allocation reported by mallinfo(arena+hblkhd)
         20086 MiB available memory on the node where the printing process lives
     GPU memory used/free/total (MiB): 8727 / 3201 / 11928
------------------
     ethr =  8.38E-09,  avg # of iterations =  1.0

     total cpu time spent up to now is     1480.8 secs

     total energy              =  -15906.89296503 Ry
     estimated scf accuracy    <       0.00005828 Ry
[tb_dev] Currently allocated     3.05E-04 Mbytes, locked:    0 /   2
[tb_pin] Currently allocated     0.00E+00 Mbytes, locked:    0 /   0

     iteration # 16     ecut=    40.00 Ry     beta= 0.40
     Davidson diagonalization with overlap

---- Real-time Memory Report at c_bands before calling an iterative solver
          1604 MiB given to the printing process from OS
             0 MiB allocation reported by mallinfo(arena+hblkhd)
         20081 MiB available memory on the node where the printing process lives
     GPU memory used/free/total (MiB): 8727 / 3201 / 11928
------------------
     ethr =  8.38E-09,  avg # of iterations =  1.0

     total cpu time spent up to now is     1549.6 secs

     total energy              =  -15906.89296537 Ry
     estimated scf accuracy    <       0.00002318 Ry
[tb_dev] Currently allocated     3.05E-04 Mbytes, locked:    0 /   2
[tb_pin] Currently allocated     0.00E+00 Mbytes, locked:    0 /   0

     iteration # 17     ecut=    40.00 Ry     beta= 0.40
     Davidson diagonalization with overlap

---- Real-time Memory Report at c_bands before calling an iterative solver
          1604 MiB given to the printing process from OS
             0 MiB allocation reported by mallinfo(arena+hblkhd)
         20076 MiB available memory on the node where the printing process lives
     GPU memory used/free/total (MiB): 8727 / 3201 / 11928
------------------
     ethr =  6.64E-09,  avg # of iterations =  1.0

     total cpu time spent up to now is     1618.5 secs

     total energy              =  -15906.89296560 Ry
     estimated scf accuracy    <       0.00002670 Ry
[tb_dev] Currently allocated     3.05E-04 Mbytes, locked:    0 /   2
[tb_pin] Currently allocated     0.00E+00 Mbytes, locked:    0 /   0

     iteration # 18     ecut=    40.00 Ry     beta= 0.40
     Davidson diagonalization with overlap

---- Real-time Memory Report at c_bands before calling an iterative solver
          1604 MiB given to the printing process from OS
             0 MiB allocation reported by mallinfo(arena+hblkhd)
         20070 MiB available memory on the node where the printing process lives
     GPU memory used/free/total (MiB): 8727 / 3201 / 11928
------------------
     ethr =  6.64E-09,  avg # of iterations =  1.0

     total cpu time spent up to now is     1687.4 secs

     total energy              =  -15906.89296388 Ry
     estimated scf accuracy    <       0.00002758 Ry
[tb_dev] Currently allocated     3.05E-04 Mbytes, locked:    0 /   2
[tb_pin] Currently allocated     0.00E+00 Mbytes, locked:    0 /   0

     iteration # 19     ecut=    40.00 Ry     beta= 0.40
     Davidson diagonalization with overlap

---- Real-time Memory Report at c_bands before calling an iterative solver
          1604 MiB given to the printing process from OS
             0 MiB allocation reported by mallinfo(arena+hblkhd)
         20059 MiB available memory on the node where the printing process lives
     GPU memory used/free/total (MiB): 8727 / 3201 / 11928
------------------
     ethr =  6.64E-09,  avg # of iterations =  1.1

     total cpu time spent up to now is     1757.1 secs

     total energy              =  -15906.89296249 Ry
     estimated scf accuracy    <       0.00000841 Ry
[tb_dev] Currently allocated     3.05E-04 Mbytes, locked:    0 /   2
[tb_pin] Currently allocated     0.00E+00 Mbytes, locked:    0 /   0

     iteration # 20     ecut=    40.00 Ry     beta= 0.40
     Davidson diagonalization with overlap

---- Real-time Memory Report at c_bands before calling an iterative solver
          1604 MiB given to the printing process from OS
             0 MiB allocation reported by mallinfo(arena+hblkhd)
         20057 MiB available memory on the node where the printing process lives
     GPU memory used/free/total (MiB): 8727 / 3201 / 11928
------------------
     ethr =  2.41E-09,  avg # of iterations =  2.0

     total cpu time spent up to now is     1836.4 secs

     total energy              =  -15906.89296288 Ry
     estimated scf accuracy    <       0.00000040 Ry
[tb_dev] Currently allocated     3.05E-04 Mbytes, locked:    0 /   2
[tb_pin] Currently allocated     0.00E+00 Mbytes, locked:    0 /   0

     iteration # 21     ecut=    40.00 Ry     beta= 0.40
     Davidson diagonalization with overlap

---- Real-time Memory Report at c_bands before calling an iterative solver
          1604 MiB given to the printing process from OS
             0 MiB allocation reported by mallinfo(arena+hblkhd)
         20052 MiB available memory on the node where the printing process lives
     GPU memory used/free/total (MiB): 8727 / 3201 / 11928
------------------
     ethr =  1.16E-10,  avg # of iterations =  5.9

     total cpu time spent up to now is     1943.3 secs

     total energy              =  -15906.89296301 Ry
     estimated scf accuracy    <       0.00000016 Ry
[tb_dev] Currently allocated     3.05E-04 Mbytes, locked:    0 /   2
[tb_pin] Currently allocated     0.00E+00 Mbytes, locked:    0 /   0

     iteration # 22     ecut=    40.00 Ry     beta= 0.40
     Davidson diagonalization with overlap

---- Real-time Memory Report at c_bands before calling an iterative solver
          1604 MiB given to the printing process from OS
             0 MiB allocation reported by mallinfo(arena+hblkhd)
         20044 MiB available memory on the node where the printing process lives
     GPU memory used/free/total (MiB): 8727 / 3201 / 11928
------------------
     ethr =  4.60E-11,  avg # of iterations =  2.2

     total cpu time spent up to now is     2025.7 secs

     total energy              =  -15906.89296303 Ry
     estimated scf accuracy    <       0.00000002 Ry
[tb_dev] Currently allocated     3.05E-04 Mbytes, locked:    0 /   2
[tb_pin] Currently allocated     0.00E+00 Mbytes, locked:    0 /   0

     iteration # 23     ecut=    40.00 Ry     beta= 0.40
     Davidson diagonalization with overlap

---- Real-time Memory Report at c_bands before calling an iterative solver
          1604 MiB given to the printing process from OS
             0 MiB allocation reported by mallinfo(arena+hblkhd)
         20036 MiB available memory on the node where the printing process lives
     GPU memory used/free/total (MiB): 8727 / 3201 / 11928
------------------
     ethr =  4.73E-12,  avg # of iterations =  5.4

     total cpu time spent up to now is     2129.6 secs

     total energy              =  -15906.89296304 Ry
     estimated scf accuracy    <          4.6E-09 Ry
[tb_dev] Currently allocated     3.05E-04 Mbytes, locked:    0 /   2
[tb_pin] Currently allocated     0.00E+00 Mbytes, locked:    0 /   0

     iteration # 24     ecut=    40.00 Ry     beta= 0.40
     Davidson diagonalization with overlap

---- Real-time Memory Report at c_bands before calling an iterative solver
          1606 MiB given to the printing process from OS
             0 MiB allocation reported by mallinfo(arena+hblkhd)
         20039 MiB available memory on the node where the printing process lives
     GPU memory used/free/total (MiB): 8727 / 3201 / 11928
------------------
     ethr =  1.31E-12,  avg # of iterations =  4.7

     total cpu time spent up to now is     2224.2 secs

     End of self-consistent calculation

          k = 0.0000 0.0000 0.0000 ( 55467 PWs)   bands (ev):

   -17.9733 -17.9729 -17.9729 -17.9729 -17.9726 -17.9726 -17.9726 -17.9722
   -13.2816 -13.2802 -13.2802 -13.2686 -13.2686 -13.2680 -13.2291 -13.2291
   -13.2219 -13.2219 -13.2219 -13.2219 -13.2219 -13.2219 -13.2214 -13.2201
   -13.2201 -13.2186 -13.2069 -13.2069 -13.2069 -13.2049 -13.2049 -13.1540
   -13.1540 -13.1540 -13.1526 -13.1526 -13.1526 -13.1526 -13.1526 -13.1526
   -13.1432 -13.1432 -13.1432  -9.0776  -8.8566  -8.8566  -8.7717  -8.5527
    -8.5355  -8.5355  -8.5257  -8.5257  -8.5257  -8.5220  -8.5220  -8.5220
    -8.5121  -8.5121  -8.5121  -8.3688  -8.3688  -8.3688  -8.2180  -8.2138
    -8.2138  -8.1812  -8.1812  -5.2104  -4.7853  -4.7853  -4.7853  -4.7671
    -4.7671  -4.7671  -4.7654  -4.7654  -4.7654  -4.7602  -4.7602  -4.7602
    -4.7590  -4.7590  -4.7590  -4.7561  -4.7561  -4.7561  -4.7550  -4.7550
    -4.7537  -4.7537  -4.7487  -4.7443  -4.6455  -4.6455  -4.3384  -3.9962
    -3.9962  -3.4727  -0.3660  -0.3660  -0.3660  -0.2747  -0.2747  -0.2747
    -0.2037  -0.1786  -0.1786  -0.1786   0.3398   0.3398   0.3398   0.7993
     0.7993   0.7993   0.9475   0.9475   0.9892   0.9892   0.9892   1.2513
     1.2513   1.2513   1.3853   1.3853   1.3853   1.5928   1.5928   1.5928
     1.6148   1.6148   1.6148   1.6955   1.6955   1.6955   1.6966   1.6966
     1.6966   1.8084   1.8084   1.8084   1.8582   1.8582   1.8582   1.9141
     1.9257   1.9257   1.9682   1.9682   1.9682   2.0120   2.0120   2.0120
     2.0319   2.0319   2.0319   2.0581   2.0581   2.0581   2.2136   2.2136
     2.2136   2.3302   2.3302   2.5386   2.5386   2.5386   2.6135   2.6135
     2.6135   2.7130   2.8973   2.8973   3.2918   3.2918   3.4916   4.9162
     4.9162   4.9162   5.3029   5.3029   5.3029   5.5200   5.5200   5.5200
     6.0458   6.0458   6.0458   6.4887   6.8990   7.2918   7.4126   7.4126
     7.8596   7.8596   7.8596   8.0146   8.0146   8.0146   8.2066   8.2066
     8.2067   8.3482   8.3483   8.3484   8.5233   8.5233   8.5234   8.5678
     8.5678   8.5747

     occupation numbers 
     1.0000   1.0000   1.0000   1.0000   1.0000   1.0000   1.0000   1.0000
     1.0000   1.0000   1.0000   1.0000   1.0000   1.0000   1.0000   1.0000
     1.0000   1.0000   1.0000   1.0000   1.0000   1.0000   1.0000   1.0000
     1.0000   1.0000   1.0000   1.0000   1.0000   1.0000   1.0000   1.0000
     1.0000   1.0000   1.0000   1.0000   1.0000   1.0000   1.0000   1.0000
     1.0000   1.0000   1.0000   1.0000   1.0000   1.0000   1.0000   1.0000
     1.0000   1.0000   1.0000   1.0000   1.0000   1.0000   1.0000   1.0000
     1.0000   1.0000   1.0000   1.0000   1.0000   1.0000   1.0000   1.0000
     1.0000   1.0000   1.0000   1.0000   1.0000   1.0000   1.0000   1.0000
     1.0000   1.0000   1.0000   1.0000   1.0000   1.0000   1.0000   1.0000
     1.0000   1.0000   1.0000   1.0000   1.0000   1.0000   1.0000   1.0000
     1.0000   1.0000   1.0000   1.0000   1.0000   1.0000   1.0000   1.0000
     1.0000   1.0001   1.0382   1.0382   1.0382   1.0422   1.0422   1.0422
     1.0454   1.0465   1.0465   1.0465   1.0702   1.0702   1.0702   1.0830
     1.0830   1.0830   1.0830   1.0830   1.0825   1.0825   1.0825   1.0733
     1.0733   1.0733   1.0639   1.0639   1.0639   1.0423   1.0423   1.0423
     1.0394   1.0394   1.0394   1.0281   1.0281   1.0281   1.0279   1.0279
     1.0279   1.0097   1.0097   1.0097   1.0007   1.0007   1.0007   0.9899
     0.9875   0.9875   0.9787   0.9787   0.9787   0.9692   0.9692   0.9692
     0.9647   0.9647   0.9647   0.9587   0.9587   0.9587   0.9198   0.9198
     0.9198   0.8874   0.8874   0.8230   0.8230   0.8230   0.7981   0.7981
     0.7981   0.7638   0.6975   0.6975   0.5497   0.5497   0.4757   0.1028
     0.1028   0.1028   0.0578   0.0578   0.0578   0.0406   0.0406   0.0406
     0.0157   0.0157   0.0157   0.0064   0.0025   0.0010   0.0007   0.0007
     0.0002   0.0002   0.0002   0.0001   0.0001   0.0001   0.0001   0.0001
     0.0001   0.0001   0.0001   0.0001   0.0000   0.0000   0.0000   0.0000
     0.0000   0.0000

          k = 0.0000 0.0000 0.2500 ( 55251 PWs)   bands (ev):

   -17.9733 -17.9730 -17.9729 -17.9729 -17.9726 -17.9726 -17.9725 -17.9723
   -13.2810 -13.2801 -13.2796 -13.2685 -13.2683 -13.2679 -13.2293 -13.2272
   -13.2219 -13.2219 -13.2219 -13.2219 -13.2219 -13.2219 -13.2214 -13.2206
   -13.2201 -13.2190 -13.2069 -13.2069 -13.2069 -13.2069 -13.2049 -13.1540
   -13.1540 -13.1540 -13.1526 -13.1525 -13.1525 -13.1525 -13.1525 -13.1525
   -13.1432 -13.1432 -13.1432  -9.0565  -8.8943  -8.8352  -8.7701  -8.6525
    -8.6202  -8.5333  -8.5251  -8.5251  -8.5224  -8.5224  -8.5123  -8.5123
    -8.5031  -8.4378  -8.4070  -8.3689  -8.3689  -8.3346  -8.2439  -8.2380
    -8.2142  -8.1988  -8.1832  -5.1356  -4.7823  -4.7823  -4.7808  -4.7681
    -4.7681  -4.7664  -4.7657  -4.7657  -4.7657  -4.7611  -4.7611  -4.7595
    -4.7593  -4.7593  -4.7588  -4.7579  -4.7568  -4.7568  -4.7561  -4.7558
    -4.7556  -4.7553  -4.7504  -4.7466  -4.7039  -4.5655  -4.3462  -4.1139
    -3.9776  -3.5792  -0.3804  -0.3544  -0.3544  -0.2745  -0.2745  -0.1907
    -0.1907  -0.0708  -0.0075   0.1008   0.3299   0.3299   0.5360   0.8148
     0.8335   0.8335   0.9444   0.9646   0.9742   1.0202   1.0202   1.1253
     1.1807   1.1807   1.3246   1.3246   1.3462   1.3845   1.4291   1.5197
     1.5197   1.6053   1.6053   1.6948   1.6998   1.7013   1.7013   1.7370
     1.7487   1.7487   1.8264   1.8547   1.9208   1.9236   1.9236   1.9259
     1.9434   1.9434   1.9525   1.9611   1.9611   2.0030   2.0164   2.0164
     2.0206   2.0562   2.0562   2.0572   2.0878   2.0878   2.1579   2.1950
     2.1950   2.2153   2.3204   2.4519   2.4519   2.5389   2.5393   2.5393
     2.6131   2.6366   2.7336   2.8158   3.1256   3.2342   3.2717   4.9871
     4.9871   5.2939   5.2939   5.5121   5.5121   5.5344   5.9028   5.9412
     6.0307   6.0307   6.2325   6.6516   7.2800   7.4139   7.5024   7.5460
     7.6550   7.9094   7.9725   7.9907   7.9907   8.0760   8.0826   8.0826
     8.2291   8.2296   8.2919   8.3182   8.3393   8.4146   8.4146   8.4347
     8.4389   8.5216

     occupation numbers 
     1.0000   1.0000   1.0000   1.0000   1.0000   1.0000   1.0000   1.0000
     1.0000   1.0000   1.0000   1.0000   1.0000   1.0000   1.0000   1.0000
     1.0000   1.0000   1.0000   1.0000   1.0000   1.0000   1.0000   1.0000
     1.0000   1.0000   1.0000   1.0000   1.0000   1.0000   1.0000   1.0000
     1.0000   1.0000   1.0000   1.0000   1.0000   1.0000   1.0000   1.0000
     1.0000   1.0000   1.0000   1.0000   1.0000   1.0000   1.0000   1.0000
     1.0000   1.0000   1.0000   1.0000   1.0000   1.0000   1.0000   1.0000
     1.0000   1.0000   1.0000   1.0000   1.0000   1.0000   1.0000   1.0000
     1.0000   1.0000   1.0000   1.0000   1.0000   1.0000   1.0000   1.0000
     1.0000   1.0000   1.0000   1.0000   1.0000   1.0000   1.0000   1.0000
     1.0000   1.0000   1.0000   1.0000   1.0000   1.0000   1.0000   1.0000
     1.0000   1.0000   1.0000   1.0000   1.0000   1.0000   1.0000   1.0000
     1.0000   1.0001   1.0376   1.0387   1.0387   1.0422   1.0422   1.0460
     1.0460   1.0515   1.0545   1.0596   1.0698   1.0698   1.0774   1.0831
     1.0832   1.0832   1.0830   1.0828   1.0827   1.0820   1.0820   1.0791
     1.0769   1.0769   1.0686   1.0686   1.0670   1.0640   1.0601   1.0509
     1.0509   1.0407   1.0407   1.0282   1.0274   1.0272   1.0272   1.0216
     1.0198   1.0198   1.0065   1.0013   0.9885   0.9879   0.9879   0.9875
     0.9839   0.9839   0.9820   0.9802   0.9802   0.9712   0.9682   0.9682
     0.9672   0.9591   0.9591   0.9589   0.9517   0.9517   0.9344   0.9248
     0.9248   0.9194   0.8902   0.8507   0.8507   0.8229   0.8228   0.8228
     0.7982   0.7903   0.7566   0.7272   0.6123   0.5713   0.5572   0.0929
     0.0929   0.0586   0.0586   0.0411   0.0411   0.0396   0.0206   0.0191
     0.0161   0.0161   0.0108   0.0045   0.0010   0.0007   0.0006   0.0005
     0.0004   0.0002   0.0002   0.0001   0.0001   0.0001   0.0001   0.0001
     0.0001   0.0001   0.0001   0.0001   0.0001   0.0000   0.0000   0.0000
     0.0000   0.0000

          k = 0.0000 0.0000-0.5000 ( 55248 PWs)   bands (ev):

   -17.9732 -17.9731 -17.9728 -17.9728 -17.9727 -17.9727 -17.9724 -17.9724
   -13.2806 -13.2800 -13.2790 -13.2684 -13.2680 -13.2677 -13.2295 -13.2253
   -13.2219 -13.2219 -13.2219 -13.2219 -13.2219 -13.2219 -13.2213 -13.2208
   -13.2201 -13.2195 -13.2096 -13.2069 -13.2069 -13.2069 -13.2049 -13.1540
   -13.1540 -13.1540 -13.1526 -13.1525 -13.1525 -13.1525 -13.1525 -13.1525
   -13.1432 -13.1432 -13.1432  -9.0175  -8.9530  -8.7938  -8.7445  -8.7298
    -8.6780  -8.5238  -8.5238  -8.5235  -8.5235  -8.5181  -8.5125  -8.5125
    -8.5089  -8.3689  -8.3689  -8.3292  -8.3280  -8.3142  -8.2931  -8.2858
    -8.2301  -8.2142  -8.1844  -5.0024  -4.8410  -4.7755  -4.7755  -4.7742
    -4.7742  -4.7712  -4.7681  -4.7639  -4.7639  -4.7636  -4.7629  -4.7629
    -4.7609  -4.7593  -4.7585  -4.7584  -4.7584  -4.7583  -4.7583  -4.7578
    -4.7574  -4.7545  -4.7536  -4.7525  -4.7472  -4.3595  -4.3569  -4.3418
    -3.9271  -3.7126  -0.4730  -0.3395  -0.3395  -0.2767  -0.2767  -0.2035
    -0.2035   0.3201   0.3201   0.5548   0.5668   0.6246   0.6549   0.6812
     0.7458   0.7620   0.8341   0.8837   0.8837   0.9554   0.9725   1.0313
     1.0595   1.0595   1.1176   1.1176   1.2218   1.2218   1.3837   1.5162
     1.5162   1.6110   1.6110   1.6386   1.6941   1.6956   1.6956   1.7031
     1.8421   1.8421   1.8511   1.8521   1.8521   1.8657   1.8947   1.9237
     1.9250   1.9250   1.9511   1.9919   2.0020   2.0122   2.0122   2.0486
     2.0563   2.0946   2.0946   2.1695   2.1695   2.1908   2.1908   2.2121
     2.2301   2.2301   2.2468   2.2468   2.3095   2.4218   2.4218   2.5393
     2.6127   2.6255   2.6583   2.6789   2.9647   3.1835   3.2150   5.0903
     5.0903   5.2418   5.2418   5.5168   5.5168   5.7098   6.0129   6.0129
     6.8912   6.9157   7.0823   7.0870   7.1576   7.1896   7.3898   7.4116
     7.7079   7.7438   7.7654   7.7655   7.7721   7.8901   7.9207   8.0559
     8.0843   8.2867   8.2867   8.2930   8.2930   8.3395   8.3395   8.3848
     8.3849   8.4546

     occupation numbers 
     1.0000   1.0000   1.0000   1.0000   1.0000   1.0000   1.0000   1.0000
     1.0000   1.0000   1.0000   1.0000   1.0000   1.0000   1.0000   1.0000
     1.0000   1.0000   1.0000   1.0000   1.0000   1.0000   1.0000   1.0000
     1.0000   1.0000   1.0000   1.0000   1.0000   1.0000   1.0000   1.0000
     1.0000   1.0000   1.0000   1.0000   1.0000   1.0000   1.0000   1.0000
     1.0000   1.0000   1.0000   1.0000   1.0000   1.0000   1.0000   1.0000
     1.0000   1.0000   1.0000   1.0000   1.0000   1.0000   1.0000   1.0000
     1.0000   1.0000   1.0000   1.0000   1.0000   1.0000   1.0000   1.0000
     1.0000   1.0000   1.0000   1.0000   1.0000   1.0000   1.0000   1.0000
     1.0000   1.0000   1.0000   1.0000   1.0000   1.0000   1.0000   1.0000
     1.0000   1.0000   1.0000   1.0000   1.0000   1.0000   1.0000   1.0000
     1.0000   1.0000   1.0000   1.0000   1.0000   1.0000   1.0000   1.0000
     1.0000   1.0000   1.0338   1.0393   1.0393   1.0421   1.0421   1.0454
     1.0454   1.0694   1.0694   1.0780   1.0784   1.0800   1.0807   1.0812
     1.0824   1.0826   1.0832   1.0833   1.0833   1.0829   1.0827   1.0817
     1.0811   1.0811   1.0794   1.0794   1.0749   1.0749   1.0641   1.0513
     1.0513   1.0399   1.0399   1.0362   1.0283   1.0281   1.0281   1.0269
     1.0037   1.0037   1.0020   1.0018   1.0018   0.9993   0.9937   0.9879
     0.9877   0.9877   0.9823   0.9736   0.9714   0.9691   0.9691   0.9609
     0.9591   0.9500   0.9500   0.9314   0.9314   0.9259   0.9259   0.9202
     0.9154   0.9154   0.9109   0.9109   0.8933   0.8600   0.8600   0.8228
     0.7984   0.7940   0.7828   0.7757   0.6726   0.5904   0.5785   0.0800
     0.0800   0.0636   0.0636   0.0408   0.0408   0.0292   0.0167   0.0167
     0.0026   0.0024   0.0016   0.0016   0.0014   0.0013   0.0008   0.0007
     0.0003   0.0003   0.0003   0.0003   0.0003   0.0002   0.0002   0.0001
     0.0001   0.0001   0.0001   0.0001   0.0001   0.0001   0.0001   0.0000
     0.0000   0.0000

          k = 0.0000 0.2500 0.2500 ( 55199 PWs)   bands (ev):

   -17.9732 -17.9729 -17.9729 -17.9728 -17.9727 -17.9726 -17.9726 -17.9723
   -13.2805 -13.2798 -13.2792 -13.2682 -13.2681 -13.2677 -13.2285 -13.2262
   -13.2219 -13.2219 -13.2219 -13.2219 -13.2219 -13.2219 -13.2215 -13.2210
   -13.2203 -13.2196 -13.2081 -13.2069 -13.2069 -13.2069 -13.2059 -13.1540
   -13.1540 -13.1540 -13.1526 -13.1525 -13.1525 -13.1525 -13.1525 -13.1525
   -13.1432 -13.1432 -13.1432  -9.0352  -8.8869  -8.8583  -8.7727  -8.7004
    -8.6240  -8.6218  -8.5430  -8.5246  -8.5227  -8.5125  -8.4750  -8.4634
    -8.4382  -8.4254  -8.3945  -8.3689  -8.3356  -8.3323  -8.2616  -8.2475
    -8.2336  -8.2071  -8.1943  -5.0613  -4.7815  -4.7789  -4.7751  -4.7711
    -4.7687  -4.7683  -4.7669  -4.7662  -4.7628  -4.7626  -4.7624  -4.7608
    -4.7596  -4.7595  -4.7589  -4.7587  -4.7573  -4.7569  -4.7569  -4.7563
    -4.7558  -4.7540  -4.7515  -4.7473  -4.6727  -4.5728  -4.3578  -4.1531
    -4.0332  -3.6876  -0.4870  -0.3406  -0.2730  -0.2066  -0.1427  -0.0352
    -0.0270   0.0366   0.0540   0.1017   0.3209   0.3976   0.6294   0.8403
     0.8487   0.8552   0.9523   0.9593   0.9835   1.0367   1.0381   1.0944
     1.1201   1.1453   1.2461   1.2887   1.2977   1.3414   1.3465   1.4100
     1.4411   1.5695   1.6029   1.6389   1.6517   1.6541   1.6598   1.7391
     1.7521   1.7979   1.8098   1.8269   1.8852   1.9035   1.9303   1.9453
     1.9472   1.9644   1.9810   1.9813   1.9923   1.9948   2.0072   2.0235
     2.0650   2.0699   2.0752   2.0913   2.0997   2.1243   2.1637   2.1745
     2.1832   2.2106   2.2558   2.4161   2.4253   2.4607   2.4701   2.5002
     2.5361   2.5557   2.6683   2.7166   3.0116   3.0177   3.1107   5.0563
     5.3067   5.3802   5.4830   5.6241   5.8207   5.9095   5.9781   6.0134
     6.0882   6.1835   6.4224   6.7966   7.4823   7.5149   7.6143   7.6169
     7.7146   7.7165   7.9722   7.9965   8.0182   8.0520   8.0756   8.0935
     8.1355   8.1568   8.1730   8.2116   8.2308   8.2653   8.3185   8.3570
     8.3775   8.3959

     occupation numbers 
     1.0000   1.0000   1.0000   1.0000   1.0000   1.0000   1.0000   1.0000
     1.0000   1.0000   1.0000   1.0000   1.0000   1.0000   1.0000   1.0000
     1.0000   1.0000   1.0000   1.0000   1.0000   1.0000   1.0000   1.0000
     1.0000   1.0000   1.0000   1.0000   1.0000   1.0000   1.0000   1.0000
     1.0000   1.0000   1.0000   1.0000   1.0000   1.0000   1.0000   1.0000
     1.0000   1.0000   1.0000   1.0000   1.0000   1.0000   1.0000   1.0000
     1.0000   1.0000   1.0000   1.0000   1.0000   1.0000   1.0000   1.0000
     1.0000   1.0000   1.0000   1.0000   1.0000   1.0000   1.0000   1.0000
     1.0000   1.0000   1.0000   1.0000   1.0000   1.0000   1.0000   1.0000
     1.0000   1.0000   1.0000   1.0000   1.0000   1.0000   1.0000   1.0000
     1.0000   1.0000   1.0000   1.0000   1.0000   1.0000   1.0000   1.0000
     1.0000   1.0000   1.0000   1.0000   1.0000   1.0000   1.0000   1.0000
     1.0000   1.0000   1.0332   1.0393   1.0423   1.0452   1.0482   1.0532
     1.0536   1.0566   1.0574   1.0596   1.0694   1.0725   1.0801   1.0832
     1.0833   1.0833   1.0829   1.0829   1.0826   1.0816   1.0816   1.0801
     1.0793   1.0784   1.0736   1.0710   1.0704   1.0674   1.0670   1.0618
     1.0590   1.0451   1.0410   1.0362   1.0344   1.0341   1.0333   1.0213
     1.0192   1.0115   1.0094   1.0064   0.9955   0.9920   0.9866   0.9835
     0.9831   0.9795   0.9760   0.9759   0.9735   0.9730   0.9702   0.9666
     0.9571   0.9559   0.9547   0.9508   0.9488   0.9428   0.9329   0.9301
     0.9278   0.9206   0.9084   0.8618   0.8589   0.8479   0.8450   0.8354
     0.8238   0.8174   0.7794   0.7626   0.6551   0.6528   0.6179   0.0841
     0.0574   0.0511   0.0431   0.0340   0.0239   0.0203   0.0179   0.0167
     0.0144   0.0120   0.0073   0.0032   0.0006   0.0005   0.0004   0.0004
     0.0003   0.0003   0.0002   0.0001   0.0001   0.0001   0.0001   0.0001
     0.0001   0.0001   0.0001   0.0001   0.0001   0.0001   0.0001   0.0000
     0.0000   0.0000

          k = 0.0000 0.2500-0.5000 ( 55228 PWs)   bands (ev):

   -17.9731 -17.9730 -17.9728 -17.9728 -17.9727 -17.9727 -17.9725 -17.9724
   -13.2800 -13.2797 -13.2787 -13.2681 -13.2679 -13.2676 -13.2284 -13.2242
   -13.2219 -13.2219 -13.2219 -13.2219 -13.2219 -13.2219 -13.2215 -13.2212
   -13.2205 -13.2200 -13.2107 -13.2069 -13.2069 -13.2069 -13.2063 -13.1540
   -13.1540 -13.1540 -13.1526 -13.1525 -13.1525 -13.1525 -13.1525 -13.1525
   -13.1432 -13.1432 -13.1432  -8.9948  -8.9366  -8.8359  -8.7608  -8.7459
    -8.6824  -8.6036  -8.5716  -8.5236  -8.5235  -8.5127  -8.4549  -8.4489
    -8.4286  -8.3689  -8.3452  -8.3342  -8.3321  -8.3195  -8.2961  -8.2886
    -8.2379  -8.2340  -8.1986  -4.9248  -4.8004  -4.7760  -4.7750  -4.7703
    -4.7669  -4.7667  -4.7662  -4.7659  -4.7656  -4.7654  -4.7641  -4.7640
    -4.7609  -4.7601  -4.7601  -4.7587  -4.7583  -4.7582  -4.7573  -4.7569
    -4.7541  -4.7532  -4.7532  -4.7527  -4.7448  -4.4626  -4.3788  -4.2763
    -3.9994  -3.8331  -0.5652  -0.3214  -0.2741  -0.2253  -0.0813  -0.0199
     0.0522   0.3120   0.3956   0.5669   0.5708   0.6266   0.6424   0.7195
     0.7246   0.7538   0.8570   0.8842   0.9037   0.9676   0.9881   1.0026
     1.0676   1.0760   1.1033   1.1218   1.1967   1.2542   1.3270   1.3617
     1.3894   1.5579   1.5813   1.6186   1.6276   1.6575   1.6816   1.6878
     1.7214   1.7433   1.7965   1.8431   1.8548   1.8886   1.9172   1.9485
     1.9542   1.9752   1.9785   1.9959   1.9999   2.0076   2.0675   2.0708
     2.0818   2.0901   2.1014   2.1228   2.1465   2.1842   2.1918   2.2266
     2.2267   2.2362   2.2572   2.2654   2.2959   2.3605   2.4057   2.4478
     2.4805   2.5475   2.6498   2.6499   2.8254   2.9073   3.0677   5.1618
     5.2753   5.3107   5.4635   5.7593   5.9195   5.9937   6.1178   6.4724
     6.9239   6.9454   7.1435   7.1659   7.1861   7.1990   7.3651   7.3801
     7.7699   7.7930   7.8066   7.8270   7.8441   7.9284   7.9357   7.9468
     7.9855   7.9970   8.1230   8.1349   8.1610   8.1686   8.1989   8.3304
     8.3646   8.3671

     occupation numbers 
     1.0000   1.0000   1.0000   1.0000   1.0000   1.0000   1.0000   1.0000
     1.0000   1.0000   1.0000   1.0000   1.0000   1.0000   1.0000   1.0000
     1.0000   1.0000   1.0000   1.0000   1.0000   1.0000   1.0000   1.0000
     1.0000   1.0000   1.0000   1.0000   1.0000   1.0000   1.0000   1.0000
     1.0000   1.0000   1.0000   1.0000   1.0000   1.0000   1.0000   1.0000
     1.0000   1.0000   1.0000   1.0000   1.0000   1.0000   1.0000   1.0000
     1.0000   1.0000   1.0000   1.0000   1.0000   1.0000   1.0000   1.0000
     1.0000   1.0000   1.0000   1.0000   1.0000   1.0000   1.0000   1.0000
     1.0000   1.0000   1.0000   1.0000   1.0000   1.0000   1.0000   1.0000
     1.0000   1.0000   1.0000   1.0000   1.0000   1.0000   1.0000   1.0000
     1.0000   1.0000   1.0000   1.0000   1.0000   1.0000   1.0000   1.0000
     1.0000   1.0000   1.0000   1.0000   1.0000   1.0000   1.0000   1.0000
     1.0000   1.0000   1.0302   1.0401   1.0422   1.0444   1.0510   1.0539
     1.0573   1.0691   1.0725   1.0784   1.0785   1.0800   1.0804   1.0820
     1.0820   1.0825   1.0833   1.0833   1.0833   1.0828   1.0825   1.0823
     1.0809   1.0807   1.0798   1.0792   1.0761   1.0731   1.0684   1.0658
     1.0636   1.0465   1.0437   1.0389   1.0377   1.0336   1.0301   1.0292
     1.0241   1.0206   1.0118   1.0035   1.0013   0.9949   0.9892   0.9828
     0.9816   0.9772   0.9765   0.9727   0.9718   0.9702   0.9565   0.9557
     0.9531   0.9511   0.9484   0.9432   0.9372   0.9276   0.9256   0.9164
     0.9163   0.9138   0.9080   0.9057   0.8972   0.8785   0.8649   0.8520
     0.8417   0.8201   0.7857   0.7857   0.7238   0.6938   0.6341   0.0719
     0.0604   0.0571   0.0446   0.0268   0.0199   0.0173   0.0136   0.0066
     0.0024   0.0023   0.0014   0.0013   0.0013   0.0012   0.0008   0.0008
     0.0003   0.0003   0.0002   0.0002   0.0002   0.0002   0.0002   0.0002
     0.0001   0.0001   0.0001   0.0001   0.0001   0.0001   0.0001   0.0001
     0.0000   0.0000

          k = 0.0000-0.5000-0.5000 ( 55180 PWs)   bands (ev):

   -17.9730 -17.9729 -17.9729 -17.9729 -17.9726 -17.9726 -17.9726 -17.9725
   -13.2795 -13.2795 -13.2783 -13.2678 -13.2678 -13.2674 -13.2279 -13.2220
   -13.2219 -13.2219 -13.2219 -13.2219 -13.2219 -13.2219 -13.2218 -13.2218
   -13.2202 -13.2202 -13.2134 -13.2072 -13.2069 -13.2069 -13.2069 -13.1540
   -13.1540 -13.1540 -13.1525 -13.1525 -13.1525 -13.1525 -13.1525 -13.1525
   -13.1432 -13.1432 -13.1432  -8.9432  -8.9118  -8.9118  -8.8056  -8.7173
    -8.6618  -8.6618  -8.6118  -8.5235  -8.5235  -8.5128  -8.3799  -8.3726
    -8.3724  -8.3724  -8.3689  -8.3651  -8.3275  -8.3275  -8.2843  -8.2802
    -8.2802  -8.2477  -8.2146  -4.7854  -4.7805  -4.7805  -4.7752  -4.7720
    -4.7705  -4.7705  -4.7674  -4.7666  -4.7647  -4.7613  -4.7604  -4.7603
    -4.7603  -4.7596  -4.7596  -4.7578  -4.7578  -4.7569  -4.7569  -4.7540
    -4.7536  -4.7535  -4.7484  -4.6959  -4.6959  -4.6935  -4.4186  -4.0850
    -4.0693  -4.0693  -0.6366  -0.2790  -0.2714  -0.2714   0.3039   0.3969
     0.4244   0.4750   0.4750   0.5393   0.6002   0.6591   0.6591   0.6803
     0.7253   0.7554   0.7554   0.7836   0.8841   0.8857   0.8857   0.9848
     0.9848   1.0293   1.0813   1.1265   1.1514   1.1514   1.2255   1.2886
     1.2932   1.5077   1.5214   1.5214   1.5350   1.6481   1.6481   1.6550
     1.6550   1.6793   1.8013   1.8601   1.8601   1.8724   1.8928   1.9046
     1.9606   2.0096   2.0096   2.0099   2.0589   2.0767   2.0776   2.0870
     2.0870   2.1077   2.1172   2.1352   2.1352   2.1938   2.1938   2.2244
     2.2248   2.2248   2.2349   2.2953   2.3159   2.3159   2.3262   2.4285
     2.4475   2.4475   2.6785   2.6945   2.7003   2.7003   2.9161   5.1725
     5.3106   5.3106   5.3325   5.9725   6.6485   6.9424   6.9540   6.9540
     6.9985   7.1259   7.1259   7.1471   7.1749   7.3048   7.3067   7.3067
     7.3076   7.5092   7.5337   7.5337   7.5590   7.9080   7.9080   7.9261
     7.9420   7.9460   8.0629   8.0791   8.0791   8.1001   8.1564   8.1763
     8.1763   8.2047

     occupation numbers 
[...]
     atom   38 type  2   force =    -0.06460068    0.00000000    0.00000000
     atom   39 type  2   force =     0.00000000    0.00000000   -0.06460068
     atom   40 type  2   force =     0.00000000    0.00000000    0.06460068
     The local contribution  to forces
     atom    1 type  1   force =     0.01152144    0.01152144    0.01152144
     atom    2 type  1   force =    -0.01152144    0.01152144   -0.01152144
     atom    3 type  1   force =     0.01152144   -0.01152144   -0.01152144
     atom    4 type  1   force =    -0.01152144   -0.01152144    0.01152144
     atom    5 type  1   force =     0.01152144    0.01152144   -0.01152144
     atom    6 type  1   force =     0.01152144   -0.01152144    0.01152144
     atom    7 type  1   force =    -0.01152144    0.01152144    0.01152144
     atom    8 type  1   force =    -0.01152144   -0.01152144   -0.01152144
     atom    9 type  4   force =     0.00000000    0.00000000    0.00000000
     atom   10 type  3   force =     0.00000000    0.00000000    0.00000000
     atom   11 type  3   force =     0.00000000    0.00000000    0.00000000
     atom   12 type  3   force =     0.00000000    0.00000000    0.00000000
     atom   13 type  3   force =     0.00000000    0.00000000    0.00000000
     atom   14 type  3   force =     0.00000000    0.00000000    0.00000000
     atom   15 type  3   force =     0.00000000    0.00000000    0.00000000
     atom   16 type  3   force =     0.00000000    0.00000000    0.00000000
     atom   17 type  2   force =     3.19965577    0.00000000    0.00000000
     atom   18 type  2   force =    -3.19965577   -0.00000000    0.00000000
     atom   19 type  2   force =    -0.00000000   -0.00000000   -3.19965577
     atom   20 type  2   force =     0.00000000    0.00000000    3.19965577
     atom   21 type  2   force =     0.00000000    3.19965577    0.00000000
     atom   22 type  2   force =    -0.00000000   -3.19965577    0.00000000
     atom   23 type  2   force =     0.00000000    0.00000000    0.15553799
     atom   24 type  2   force =     0.00000000    0.00000000   -0.15553799
     atom   25 type  2   force =     0.15553799    0.00000000    0.00000000
     atom   26 type  2   force =    -0.15553799    0.00000000    0.00000000
     atom   27 type  2   force =     0.00000000    0.15553799    0.00000000
     atom   28 type  2   force =    -0.00000000   -0.15553799    0.00000000
     atom   29 type  2   force =     0.00000000    0.00000000   -0.15553799
     atom   30 type  2   force =     0.00000000    0.00000000    0.15553799
     atom   31 type  2   force =     0.00000000    0.15553799    0.00000000
     atom   32 type  2   force =     0.00000000   -0.15553799    0.00000000
     atom   33 type  2   force =     0.15553799    0.00000000    0.00000000
     atom   34 type  2   force =    -0.15553799    0.00000000    0.00000000
     atom   35 type  2   force =     0.00000000   -0.06485668    0.00000000
     atom   36 type  2   force =     0.00000000    0.06485668    0.00000000
     atom   37 type  2   force =    -0.06485668    0.00000000    0.00000000
     atom   38 type  2   force =     0.06485668    0.00000000    0.00000000
     atom   39 type  2   force =     0.00000000    0.00000000    0.06485668
     atom   40 type  2   force =     0.00000000    0.00000000   -0.06485668
     The core correction contribution to forces
     atom    1 type  1   force =     0.00002243    0.00002243    0.00002243
     atom    2 type  1   force =    -0.00002243    0.00002243   -0.00002243
     atom    3 type  1   force =     0.00002243   -0.00002243   -0.00002243
     atom    4 type  1   force =    -0.00002243   -0.00002243    0.00002243
     atom    5 type  1   force =     0.00002243    0.00002243   -0.00002243
     atom    6 type  1   force =     0.00002243   -0.00002243    0.00002243
     atom    7 type  1   force =    -0.00002243    0.00002243    0.00002243
     atom    8 type  1   force =    -0.00002243   -0.00002243   -0.00002243
     atom    9 type  4   force =    -0.00000000   -0.00000000   -0.00000000
     atom   10 type  3   force =     0.00000000   -0.00000000    0.00000000
     atom   11 type  3   force =    -0.00000000   -0.00000000    0.00000000
     atom   12 type  3   force =    -0.00000000    0.00000000    0.00000000
     atom   13 type  3   force =     0.00000000   -0.00000000    0.00000000
     atom   14 type  3   force =    -0.00000000    0.00000000    0.00000000
     atom   15 type  3   force =     0.00000000    0.00000000    0.00000000
     atom   16 type  3   force =     0.00000000    0.00000000    0.00000000
     atom   17 type  2   force =    -0.00559279   -0.00000000    0.00000000
     atom   18 type  2   force =     0.00559279   -0.00000000    0.00000000
     atom   19 type  2   force =    -0.00000000   -0.00000000    0.00559279
     atom   20 type  2   force =    -0.00000000   -0.00000000   -0.00559279
     atom   21 type  2   force =    -0.00000000   -0.00559279    0.00000000
     atom   22 type  2   force =    -0.00000000    0.00559279    0.00000000
     atom   23 type  2   force =    -0.00000000   -0.00000000    0.00019464
     atom   24 type  2   force =    -0.00000000   -0.00000000   -0.00019464
     atom   25 type  2   force =     0.00019464   -0.00000000    0.00000000
     atom   26 type  2   force =    -0.00019464   -0.00000000    0.00000000
     atom   27 type  2   force =    -0.00000000    0.00019464   -0.00000000
     atom   28 type  2   force =    -0.00000000   -0.00019464   -0.00000000
     atom   29 type  2   force =    -0.00000000   -0.00000000   -0.00019464
     atom   30 type  2   force =    -0.00000000   -0.00000000    0.00019464
     atom   31 type  2   force =    -0.00000000    0.00019464    0.00000000
     atom   32 type  2   force =    -0.00000000   -0.00019464    0.00000000
     atom   33 type  2   force =     0.00019464   -0.00000000   -0.00000000
     atom   34 type  2   force =    -0.00019464   -0.00000000   -0.00000000
     atom   35 type  2   force =    -0.00000000   -0.00004051   -0.00000000
     atom   36 type  2   force =    -0.00000000    0.00004051   -0.00000000
     atom   37 type  2   force =    -0.00004051   -0.00000000   -0.00000000
     atom   38 type  2   force =     0.00004051   -0.00000000   -0.00000000
     atom   39 type  2   force =    -0.00000000   -0.00000000    0.00004051
     atom   40 type  2   force =    -0.00000000   -0.00000000   -0.00004051
     The Hubbard contrib.    to forces
     atom    1 type  1   force =     0.00000000    0.00000000    0.00000000
     atom    2 type  1   force =     0.00000000    0.00000000    0.00000000
     atom    3 type  1   force =     0.00000000    0.00000000    0.00000000
     atom    4 type  1   force =     0.00000000    0.00000000    0.00000000
     atom    5 type  1   force =     0.00000000    0.00000000    0.00000000
     atom    6 type  1   force =     0.00000000    0.00000000    0.00000000
     atom    7 type  1   force =     0.00000000    0.00000000    0.00000000
     atom    8 type  1   force =     0.00000000    0.00000000    0.00000000
     atom    9 type  4   force =     0.00000000    0.00000000    0.00000000
     atom   10 type  3   force =     0.00000000    0.00000000    0.00000000
     atom   11 type  3   force =     0.00000000    0.00000000    0.00000000
     atom   12 type  3   force =     0.00000000    0.00000000    0.00000000
     atom   13 type  3   force =     0.00000000    0.00000000    0.00000000
     atom   14 type  3   force =     0.00000000    0.00000000    0.00000000
     atom   15 type  3   force =     0.00000000    0.00000000    0.00000000
     atom   16 type  3   force =     0.00000000    0.00000000    0.00000000
     atom   17 type  2   force =     0.00000000    0.00000000    0.00000000
     atom   18 type  2   force =     0.00000000    0.00000000    0.00000000
     atom   19 type  2   force =     0.00000000    0.00000000    0.00000000
     atom   20 type  2   force =     0.00000000    0.00000000    0.00000000
     atom   21 type  2   force =     0.00000000    0.00000000    0.00000000
     atom   22 type  2   force =     0.00000000    0.00000000    0.00000000
     atom   23 type  2   force =     0.00000000    0.00000000    0.00000000
     atom   24 type  2   force =     0.00000000    0.00000000    0.00000000
     atom   25 type  2   force =     0.00000000    0.00000000    0.00000000
     atom   26 type  2   force =     0.00000000    0.00000000    0.00000000
     atom   27 type  2   force =     0.00000000    0.00000000    0.00000000
     atom   28 type  2   force =     0.00000000    0.00000000    0.00000000
     atom   29 type  2   force =     0.00000000    0.00000000    0.00000000
     atom   30 type  2   force =     0.00000000    0.00000000    0.00000000
     atom   31 type  2   force =     0.00000000    0.00000000    0.00000000
     atom   32 type  2   force =     0.00000000    0.00000000    0.00000000
     atom   33 type  2   force =     0.00000000    0.00000000    0.00000000
     atom   34 type  2   force =     0.00000000    0.00000000    0.00000000
     atom   35 type  2   force =     0.00000000    0.00000000    0.00000000
     atom   36 type  2   force =     0.00000000    0.00000000    0.00000000
     atom   37 type  2   force =     0.00000000    0.00000000    0.00000000
     atom   38 type  2   force =     0.00000000    0.00000000    0.00000000
     atom   39 type  2   force =     0.00000000    0.00000000    0.00000000
     atom   40 type  2   force =     0.00000000    0.00000000    0.00000000
     The SCF correction term to forces
     atom    1 type  1   force =     0.00000011    0.00000011    0.00000011
     atom    2 type  1   force =    -0.00000011    0.00000011   -0.00000011
     atom    3 type  1   force =     0.00000011   -0.00000011   -0.00000011
     atom    4 type  1   force =    -0.00000011   -0.00000011    0.00000011
     atom    5 type  1   force =     0.00000011    0.00000011   -0.00000011
     atom    6 type  1   force =     0.00000011   -0.00000011    0.00000011
     atom    7 type  1   force =    -0.00000011    0.00000011    0.00000011
     atom    8 type  1   force =    -0.00000011   -0.00000011   -0.00000011
     atom    9 type  4   force =     0.00000000   -0.00000000   -0.00000000
     atom   10 type  3   force =     0.00000000   -0.00000000   -0.00000000
     atom   11 type  3   force =    -0.00000000   -0.00000000    0.00000000
     atom   12 type  3   force =    -0.00000000   -0.00000000   -0.00000000
     atom   13 type  3   force =    -0.00000000   -0.00000000   -0.00000000
     atom   14 type  3   force =    -0.00000000    0.00000000   -0.00000000
     atom   15 type  3   force =    -0.00000000   -0.00000000   -0.00000000
     atom   16 type  3   force =    -0.00000000    0.00000000    0.00000000
     atom   17 type  2   force =    -0.00000021   -0.00000000    0.00000000
     atom   18 type  2   force =     0.00000021   -0.00000000    0.00000000
     atom   19 type  2   force =    -0.00000000    0.00000000    0.00000021
     atom   20 type  2   force =    -0.00000000    0.00000000   -0.00000021
     atom   21 type  2   force =    -0.00000000   -0.00000021    0.00000000
     atom   22 type  2   force =    -0.00000000    0.00000021    0.00000000
     atom   23 type  2   force =    -0.00000000    0.00000000    0.00000019
     atom   24 type  2   force =    -0.00000000   -0.00000000   -0.00000019
     atom   25 type  2   force =     0.00000019    0.00000000    0.00000000
     atom   26 type  2   force =    -0.00000019    0.00000000    0.00000000
     atom   27 type  2   force =    -0.00000000    0.00000019    0.00000000
     atom   28 type  2   force =     0.00000000   -0.00000019    0.00000000
     atom   29 type  2   force =    -0.00000000    0.00000000   -0.00000019
     atom   30 type  2   force =     0.00000000    0.00000000    0.00000019
     atom   31 type  2   force =     0.00000000    0.00000019    0.00000000
     atom   32 type  2   force =     0.00000000   -0.00000019    0.00000000
     atom   33 type  2   force =     0.00000019    0.00000000    0.00000000
     atom   34 type  2   force =    -0.00000019    0.00000000    0.00000000
     atom   35 type  2   force =    -0.00000000    0.00000005    0.00000000
     atom   36 type  2   force =    -0.00000000   -0.00000005    0.00000000
     atom   37 type  2   force =     0.00000005   -0.00000000    0.00000000
     atom   38 type  2   force =    -0.00000005   -0.00000000    0.00000000
     atom   39 type  2   force =     0.00000000    0.00000000   -0.00000005
     atom   40 type  2   force =    -0.00000000    0.00000000    0.00000005

     Total force =     0.000200     Total SCF correction =     0.000001


     Computing stress (Cartesian axis) and pressure

          total   stress  (Ry/bohr**3)                   (kbar)     P=       -0.04
  -0.00000029   0.00000000   0.00000000           -0.04        0.00        0.00
   0.00000000  -0.00000029   0.00000000            0.00       -0.04        0.00
   0.00000000   0.00000000  -0.00000029            0.00        0.00       -0.04

     kinetic stress (kbar)   3693.85      0.00      0.00
                                0.00   3693.85      0.00
                                0.00      0.00   3693.85

     local   stress (kbar)   -244.66      0.00      0.00
                                0.00   -244.66      0.00
                                0.00      0.00   -244.66

     nonloc. stress (kbar)    944.80      0.00      0.00
                                0.00    944.80      0.00
                                0.00      0.00    944.80

     hartree stress (kbar)   2085.07     -0.00      0.00
                               -0.00   2085.07     -0.00
                                0.00     -0.00   2085.07

     exc-cor stress (kbar)  13111.94      0.00      0.00
                                0.00  13111.94      0.00
                                0.00      0.00  13111.94

     corecor stress (kbar) -14853.61     -0.00     -0.00
                               -0.00 -14853.61     -0.00
                               -0.00     -0.00 -14853.61

     ewald   stress (kbar)  -4737.45      0.00      0.00
                                0.00  -4737.45     -0.00
                                0.00     -0.00  -4737.45

     hubbard stress (kbar)      0.00      0.00      0.00
                                0.00      0.00      0.00
                                0.00      0.00      0.00

     DFT-D   stress (kbar)      0.00      0.00      0.00
                                0.00      0.00      0.00
                                0.00      0.00      0.00

     XDM     stress (kbar)      0.00      0.00      0.00
                                0.00      0.00      0.00
                                0.00      0.00      0.00

     dft-nl  stress (kbar)      0.00      0.00      0.00
                                0.00      0.00      0.00
                                0.00      0.00      0.00

     TS-vdW  stress (kbar)      0.00      0.00      0.00
                                0.00      0.00      0.00
                                0.00      0.00      0.00

     MDB     stress (kbar)      0.00      0.00      0.00
                                0.00      0.00      0.00
                                0.00      0.00      0.00

     3D-RISM stress (kbar)      0.00      0.00      0.00
                                0.00      0.00      0.00
                                0.00      0.00      0.00


     Writing all to output data dir ../out/aiida.save/ :
     XML data file, charge density, pseudopotentials, collected wavefunctions
 
     init_run     :     68.57s CPU     69.22s WALL (       2 calls)
     electrons    :  39390.79s CPU  39393.43s WALL (      26 calls)
     update_pot   :     35.65s CPU     35.66s WALL (      24 calls)
     forces       :    597.73s CPU    597.68s WALL (      26 calls)
     stress       :   1959.27s CPU   1959.09s WALL (      26 calls)

     Called by init_run:
     wfcinit      :     59.84s CPU     60.20s WALL (       2 calls)
     wfcinit:atom :      2.00s CPU      2.00s WALL (      20 calls)
     wfcinit:wfcr :     56.85s CPU     56.97s WALL (      20 calls)
     potinit      :      2.97s CPU      3.02s WALL (       2 calls)
     hinit0       :      1.88s CPU      1.92s WALL (       2 calls)

     Called by electrons:
     c_bands      :  33246.80s CPU  33247.44s WALL (     436 calls)
     sum_band     :   4900.28s CPU   4900.75s WALL (     436 calls)
     v_of_rho     :     56.71s CPU     56.86s WALL (     441 calls)
     v_h          :      8.82s CPU      8.86s WALL (     441 calls)
     v_xc         :     53.73s CPU     53.85s WALL (     493 calls)
     newd         :    695.64s CPU    695.74s WALL (     441 calls)
                                      695.56s GPU  (     441 calls)
     PAW_pot      :    537.99s CPU    537.90s WALL (     465 calls)
     mix_rho      :     34.63s CPU     34.69s WALL (     436 calls)

     Called by c_bands:
     init_us_2    :    319.84s CPU    319.84s WALL (    9500 calls)
     cegterg      :  32471.10s CPU  32471.66s WALL (    4370 calls)

     Called by sum_band:
     sum_band:wei :      1.24s CPU      1.24s WALL (     436 calls)
     sum_band:loo :   4188.90s CPU   4189.28s WALL (     436 calls)
     sum_band:buf :    150.69s CPU    150.69s WALL (    4360 calls)
     sum_band:ini :    117.36s CPU    117.36s WALL (    4360 calls)
     sum_band:cal :   2214.04s CPU   2213.85s WALL (    4600 calls)
     sum_band:bec :    230.99s CPU    230.96s WALL (    4600 calls)
     addusdens    :    688.55s CPU    688.54s WALL (     436 calls)
                                      688.46s GPU  (     436 calls)
     addusd:skk   :     13.84s CPU     15.01s WALL (    1744 calls)
                                       14.40s GPU  (    1744 calls)

     Called by *egterg:
     cdiaghg      :    557.13s CPU    559.32s WALL (   19277 calls)
                                      554.76s GPU  (   19277 calls)
     cegterg:over :   5960.24s CPU   5959.83s WALL (   15367 calls)
     cegterg:upda :   2365.84s CPU   2365.50s WALL (   15367 calls)
     cegterg:last :   4459.07s CPU   4458.33s WALL (    8500 calls)
     h_psi        :  15346.34s CPU  15397.78s WALL (   19757 calls)
                                    15378.99s GPU  (   19757 calls)
     s_psi        :    669.07s CPU    669.03s WALL (   19757 calls)
     g_psi        :      0.09s CPU    111.88s WALL (   15367 calls)
                                       31.51s GPU  (   15367 calls)

     Called by h_psi:
     h_psi:calbec :   5072.33s CPU   5076.12s WALL (   19757 calls)
                                     5001.63s GPU  (   19757 calls)
     vloc_psi     :   6531.06s CPU   6539.88s WALL (   19757 calls)
                                     6530.07s GPU  (   19757 calls)
     add_vuspsi   :    342.99s CPU   3621.55s WALL (   19757 calls)
                                     3616.99s GPU  (   19757 calls)

     General routines
     calbec       :   9361.97s CPU   9361.59s WALL (   28777 calls)
     fft          :     31.75s CPU     42.14s WALL (    6376 calls)
                                       29.00s GPU  (    5935 calls)
     ffts         :      3.35s CPU      3.62s WALL (     877 calls)
                                        1.49s GPU  (     436 calls)
     fftw         :   5396.86s CPU   6120.74s WALL (  365014 calls)
                                     5265.26s GPU  (  365014 calls)
     interpolate  :     12.74s CPU     13.05s WALL (     441 calls)
 
     Parallel routines

     PAW routines
     PAW_pot      :    537.99s CPU    537.90s WALL (     465 calls)
     PAW_symme    :      1.60s CPU      1.61s WALL (     901 calls)
 
     PWSCF        :     11h44m CPU     11h44m WALL

 
   This run was terminated on:   3:49:41  22Mar2025            

=------------------------------------------------------------------------------=
   JOB DONE.
=------------------------------------------------------------------------------=
