
     Program PWSCF v.7.4 starts on  5Mar2025 at  2:26:50 

     This program is part of the open-source Quantum ESPRESSO suite
     for quantum simulation of materials; please cite
         "P. Giannozzi et al., J. Phys.:Condens. Matter 21 395502 (2009);
         "P. Giannozzi et al., J. Phys.:Condens. Matter 29 465901 (2017);
         "P. Giannozzi et al., J. Chem. Phys. 152 154105 (2020);
          URL http://www.quantum-espresso.org", 
     in publications or presentations arising from this work. More details at
     http://www.quantum-espresso.org/quote

     Parallel version (MPI), running on     4 processors

     MPI processes distributed on     1 nodes
     6099 MiB available memory on the printing compute node when the environment starts
 
     Waiting for input...
     Reading input from standard input

     Current dimensions of program PWSCF are:
     Max number of different atomic species (ntypx) = 10
     Max number of k-points (npk) =  40000
     Max angular momentum in pseudopotentials (lmaxx) =  4
     file Pb.pbe-dn-kjpaw_psl.0.2.2.UPF: wavefunction(s)  6S renormalized
 
     R & G space division:  proc/nbgrp/npool/nimage =       4
     Subspace diagonalization in iterative solution of the eigenvalue problem:
     a serial algorithm will be used

 
     Parallelization info
     --------------------
     sticks:   dense  smooth     PW     G-vecs:    dense   smooth      PW
     Min        3608    1802    483               326316   115428   16021
     Max        3609    1803    484               326319   115431   16022
     Sum       14433    7209   1933              1305271   461719   64085
 
     Using Slab Decomposition
 


     bravais-lattice index     =            1
     lattice parameter (alat)  =      23.8142  a.u.
     unit-cell volume          =   13505.3394 (a.u.)^3
     number of atoms/cell      =           39
     number of atomic types    =            3
     number of electrons       =       338.00
     number of Kohn-Sham states=          203
     kinetic-energy cutoff     =      40.0000  Ry
     charge density cutoff     =     320.0000  Ry
     scf convergence threshold =      1.4E-09
     mixing beta               =       0.4000
     number of iterations used =            8  plain     mixing
     energy convergence thresh.=      7.0E-05
     force convergence thresh. =      1.0E-04
     press convergence thresh. =      5.0E-02
     Exchange-correlation= SLA  PW   PBX  PBC
                           (   1   4   3   4   0   0   0)
     nstep                     =           50


     GPU acceleration is ACTIVE.  1 visible GPUs per MPI rank
     GPU-aware MPI enabled

     Message from routine print_cuda_info:
     High GPU oversubscription detected. Are you sure this is what you want?

     GPU used by master process:

        Device Number: 0
        Device name: NVIDIA RTX A2000 12GB
        Compute capability : 86
        Ratio of single to double precision performance  : 32
        Memory Clock Rate (KHz): 6001000
        Memory Bus Width (bits): 192
        Peak Memory Bandwidth (GB/s): 288.05

     celldm(1)=  23.814155  celldm(2)=   0.000000  celldm(3)=   0.000000
     celldm(4)=   0.000000  celldm(5)=   0.000000  celldm(6)=   0.000000

     crystal axes: (cart. coord. in units of alat)
               a(1) = (   1.000000   0.000000   0.000000 )  
               a(2) = (   0.000000   1.000000   0.000000 )  
               a(3) = (   0.000000   0.000000   1.000000 )  

     reciprocal axes: (cart. coord. in units 2 pi/alat)
               b(1) = (  1.000000  0.000000  0.000000 )  
               b(2) = (  0.000000  1.000000  0.000000 )  
               b(3) = (  0.000000  0.000000  1.000000 )  


     PseudoPot. # 1 for Cs read from file:
     ../pseudo/Cs_pbe_v1.uspp.F.UPF
     MD5 check sum: 3476d69cb178dfad3ffaa59df4e07ca4
     Pseudo is Ultrasoft + core correction, Zval =  9.0
     Generated by new atomic code, or converted to UPF format
     Using radial grid of  905 points,  6 beta functions with: 
                l(1) =   0
                l(2) =   0
                l(3) =   1
                l(4) =   1
                l(5) =   2
                l(6) =   2
     Q(r) pseudized with  6 coefficients,  rinner =    1.500   1.500   1.500
                                                       1.500   1.500

     PseudoPot. # 2 for I  read from file:
     ../pseudo/I.pbe-n-kjpaw_psl.0.2.UPF
     MD5 check sum: d4ef18d9c8f18dc85e5843bca1e50dc0
     Pseudo is Projector augmented-wave + core cor, Zval =  7.0
     Generated using "atomic" code by A. Dal Corso  v.5.0.99 svn rev. 10869
     Shape of augmentation charge: PSQ
     Using radial grid of 1247 points,  4 beta functions with: 
                l(1) =   0
                l(2) =   0
                l(3) =   1
                l(4) =   1
     Q(r) pseudized with 0 coefficients 


     PseudoPot. # 3 for Pb read from file:
     ../pseudo/Pb.pbe-dn-kjpaw_psl.0.2.2.UPF
     MD5 check sum: 9d431e6316058b74ade52399a6cf67da
     Pseudo is Projector augmented-wave + core cor, Zval = 14.0
     Generated using "atomic" code by A. Dal Corso  v.5.0.99 svn rev. 10869
     Shape of augmentation charge: PSQ
     Using radial grid of 1281 points,  6 beta functions with: 
                l(1) =   0
                l(2) =   0
                l(3) =   1
                l(4) =   1
                l(5) =   2
                l(6) =   2
     Q(r) pseudized with 0 coefficients 


     atomic species   valence    mass     pseudopotential
     Cs                9.00   132.90545     Cs( 1.00)
     I                 7.00   126.90447     I ( 1.00)
     Pb               14.00   207.20000     Pb( 1.00)

     48 Sym. Ops., with inversion, found


                                    s                        frac. trans.

      isym =  1     identity                                     

 cryst.   s( 1) = (     1          0          0      )
                  (     0          1          0      )
                  (     0          0          1      )

 cart.    s( 1) = (  1.0000000  0.0000000  0.0000000 )
                  (  0.0000000  1.0000000  0.0000000 )
                  (  0.0000000  0.0000000  1.0000000 )


      isym =  2     180 deg rotation - cart. axis [0,0,1]        

 cryst.   s( 2) = (    -1          0          0      )
                  (     0         -1          0      )
                  (     0          0          1      )

 cart.    s( 2) = ( -1.0000000  0.0000000  0.0000000 )
                  (  0.0000000 -1.0000000  0.0000000 )
                  (  0.0000000  0.0000000  1.0000000 )


      isym =  3     180 deg rotation - cart. axis [0,1,0]        

 cryst.   s( 3) = (    -1          0          0      )
                  (     0          1          0      )
                  (     0          0         -1      )

 cart.    s( 3) = ( -1.0000000  0.0000000  0.0000000 )
                  (  0.0000000  1.0000000  0.0000000 )
                  (  0.0000000  0.0000000 -1.0000000 )


      isym =  4     180 deg rotation - cart. axis [1,0,0]        

 cryst.   s( 4) = (     1          0          0      )
                  (     0         -1          0      )
                  (     0          0         -1      )

 cart.    s( 4) = (  1.0000000  0.0000000  0.0000000 )
                  (  0.0000000 -1.0000000  0.0000000 )
                  (  0.0000000  0.0000000 -1.0000000 )


      isym =  5     180 deg rotation - cart. axis [1,1,0]        

 cryst.   s( 5) = (     0          1          0      )
                  (     1          0          0      )
                  (     0          0         -1      )

 cart.    s( 5) = (  0.0000000  1.0000000  0.0000000 )
                  (  1.0000000  0.0000000  0.0000000 )
                  (  0.0000000  0.0000000 -1.0000000 )


      isym =  6     180 deg rotation - cart. axis [1,-1,0]       

 cryst.   s( 6) = (     0         -1          0      )
                  (    -1          0          0      )
                  (     0          0         -1      )

 cart.    s( 6) = (  0.0000000 -1.0000000  0.0000000 )
                  ( -1.0000000  0.0000000  0.0000000 )
                  (  0.0000000  0.0000000 -1.0000000 )


      isym =  7      90 deg rotation - cart. axis [0,0,-1]       

 cryst.   s( 7) = (     0         -1          0      )
                  (     1          0          0      )
                  (     0          0          1      )

 cart.    s( 7) = (  0.0000000  1.0000000  0.0000000 )
                  ( -1.0000000  0.0000000  0.0000000 )
                  (  0.0000000  0.0000000  1.0000000 )


      isym =  8      90 deg rotation - cart. axis [0,0,1]        

 cryst.   s( 8) = (     0          1          0      )
                  (    -1          0          0      )
                  (     0          0          1      )

 cart.    s( 8) = (  0.0000000 -1.0000000  0.0000000 )
                  (  1.0000000  0.0000000  0.0000000 )
                  (  0.0000000  0.0000000  1.0000000 )


      isym =  9     180 deg rotation - cart. axis [1,0,1]        

 cryst.   s( 9) = (     0          0          1      )
                  (     0         -1          0      )
                  (     1          0          0      )

 cart.    s( 9) = (  0.0000000  0.0000000  1.0000000 )
                  (  0.0000000 -1.0000000  0.0000000 )
                  (  1.0000000  0.0000000  0.0000000 )


      isym = 10     180 deg rotation - cart. axis [-1,0,1]       

 cryst.   s(10) = (     0          0         -1      )
                  (     0         -1          0      )
                  (    -1          0          0      )

 cart.    s(10) = (  0.0000000  0.0000000 -1.0000000 )
                  (  0.0000000 -1.0000000  0.0000000 )
                  ( -1.0000000  0.0000000  0.0000000 )


      isym = 11      90 deg rotation - cart. axis [0,1,0]        

 cryst.   s(11) = (     0          0         -1      )
                  (     0          1          0      )
                  (     1          0          0      )

 cart.    s(11) = (  0.0000000  0.0000000  1.0000000 )
                  (  0.0000000  1.0000000  0.0000000 )
                  ( -1.0000000  0.0000000  0.0000000 )


      isym = 12      90 deg rotation - cart. axis [0,-1,0]       

 cryst.   s(12) = (     0          0          1      )
                  (     0          1          0      )
                  (    -1          0          0      )

 cart.    s(12) = (  0.0000000  0.0000000 -1.0000000 )
                  (  0.0000000  1.0000000  0.0000000 )
                  (  1.0000000  0.0000000  0.0000000 )


      isym = 13     180 deg rotation - cart. axis [0,1,1]        

 cryst.   s(13) = (    -1          0          0      )
                  (     0          0          1      )
                  (     0          1          0      )

 cart.    s(13) = ( -1.0000000  0.0000000  0.0000000 )
                  (  0.0000000  0.0000000  1.0000000 )
                  (  0.0000000  1.0000000  0.0000000 )


      isym = 14     180 deg rotation - cart. axis [0,1,-1]       

 cryst.   s(14) = (    -1          0          0      )
                  (     0          0         -1      )
                  (     0         -1          0      )

 cart.    s(14) = ( -1.0000000  0.0000000  0.0000000 )
                  (  0.0000000  0.0000000 -1.0000000 )
                  (  0.0000000 -1.0000000  0.0000000 )


      isym = 15      90 deg rotation - cart. axis [-1,0,0]       

 cryst.   s(15) = (     1          0          0      )
                  (     0          0         -1      )
                  (     0          1          0      )

 cart.    s(15) = (  1.0000000  0.0000000  0.0000000 )
                  (  0.0000000  0.0000000  1.0000000 )
                  (  0.0000000 -1.0000000  0.0000000 )


      isym = 16      90 deg rotation - cart. axis [1,0,0]        

 cryst.   s(16) = (     1          0          0      )
                  (     0          0          1      )
                  (     0         -1          0      )

 cart.    s(16) = (  1.0000000  0.0000000  0.0000000 )
                  (  0.0000000  0.0000000 -1.0000000 )
                  (  0.0000000  1.0000000  0.0000000 )


      isym = 17     120 deg rotation - cart. axis [-1,-1,-1]     

 cryst.   s(17) = (     0          0          1      )
                  (     1          0          0      )
                  (     0          1          0      )

 cart.    s(17) = (  0.0000000  1.0000000  0.0000000 )
                  (  0.0000000  0.0000000  1.0000000 )
                  (  1.0000000  0.0000000  0.0000000 )


      isym = 18     120 deg rotation - cart. axis [-1,1,1]       

 cryst.   s(18) = (     0          0         -1      )
                  (    -1          0          0      )
                  (     0          1          0      )

 cart.    s(18) = (  0.0000000 -1.0000000  0.0000000 )
                  (  0.0000000  0.0000000  1.0000000 )
                  ( -1.0000000  0.0000000  0.0000000 )


      isym = 19     120 deg rotation - cart. axis [1,1,-1]       

 cryst.   s(19) = (     0          0         -1      )
                  (     1          0          0      )
                  (     0         -1          0      )

 cart.    s(19) = (  0.0000000  1.0000000  0.0000000 )
                  (  0.0000000  0.0000000 -1.0000000 )
                  ( -1.0000000  0.0000000  0.0000000 )


      isym = 20     120 deg rotation - cart. axis [1,-1,1]       

 cryst.   s(20) = (     0          0          1      )
                  (    -1          0          0      )
                  (     0         -1          0      )

 cart.    s(20) = (  0.0000000 -1.0000000  0.0000000 )
                  (  0.0000000  0.0000000 -1.0000000 )
                  (  1.0000000  0.0000000  0.0000000 )


      isym = 21     120 deg rotation - cart. axis [1,1,1]        

 cryst.   s(21) = (     0          1          0      )
                  (     0          0          1      )
                  (     1          0          0      )

 cart.    s(21) = (  0.0000000  0.0000000  1.0000000 )
                  (  1.0000000  0.0000000  0.0000000 )
                  (  0.0000000  1.0000000  0.0000000 )


      isym = 22     120 deg rotation - cart. axis [-1,1,-1]      

 cryst.   s(22) = (     0         -1          0      )
                  (     0          0         -1      )
                  (     1          0          0      )

 cart.    s(22) = (  0.0000000  0.0000000  1.0000000 )
                  ( -1.0000000  0.0000000  0.0000000 )
                  (  0.0000000 -1.0000000  0.0000000 )


      isym = 23     120 deg rotation - cart. axis [1,-1,-1]      

 cryst.   s(23) = (     0         -1          0      )
                  (     0          0          1      )
                  (    -1          0          0      )

 cart.    s(23) = (  0.0000000  0.0000000 -1.0000000 )
                  ( -1.0000000  0.0000000  0.0000000 )
                  (  0.0000000  1.0000000  0.0000000 )


      isym = 24     120 deg rotation - cart. axis [-1,-1,1]      

 cryst.   s(24) = (     0          1          0      )
                  (     0          0         -1      )
                  (    -1          0          0      )

 cart.    s(24) = (  0.0000000  0.0000000 -1.0000000 )
                  (  1.0000000  0.0000000  0.0000000 )
                  (  0.0000000 -1.0000000  0.0000000 )


      isym = 25     inversion                                    

 cryst.   s(25) = (    -1          0          0      )
                  (     0         -1          0      )
                  (     0          0         -1      )

 cart.    s(25) = ( -1.0000000  0.0000000  0.0000000 )
                  (  0.0000000 -1.0000000  0.0000000 )
                  (  0.0000000  0.0000000 -1.0000000 )


      isym = 26     inv. 180 deg rotation - cart. axis [0,0,1]   

 cryst.   s(26) = (     1          0          0      )
                  (     0          1          0      )
                  (     0          0         -1      )

 cart.    s(26) = (  1.0000000  0.0000000  0.0000000 )
                  (  0.0000000  1.0000000  0.0000000 )
                  (  0.0000000  0.0000000 -1.0000000 )


      isym = 27     inv. 180 deg rotation - cart. axis [0,1,0]   

 cryst.   s(27) = (     1          0          0      )
                  (     0         -1          0      )
                  (     0          0          1      )

 cart.    s(27) = (  1.0000000  0.0000000  0.0000000 )
                  (  0.0000000 -1.0000000  0.0000000 )
                  (  0.0000000  0.0000000  1.0000000 )


      isym = 28     inv. 180 deg rotation - cart. axis [1,0,0]   

 cryst.   s(28) = (    -1          0          0      )
                  (     0          1          0      )
                  (     0          0          1      )

 cart.    s(28) = ( -1.0000000  0.0000000  0.0000000 )
                  (  0.0000000  1.0000000  0.0000000 )
                  (  0.0000000  0.0000000  1.0000000 )


      isym = 29     inv. 180 deg rotation - cart. axis [1,1,0]   

 cryst.   s(29) = (     0         -1          0      )
                  (    -1          0          0      )
                  (     0          0          1      )

 cart.    s(29) = (  0.0000000 -1.0000000  0.0000000 )
                  ( -1.0000000  0.0000000  0.0000000 )
                  (  0.0000000  0.0000000  1.0000000 )


      isym = 30     inv. 180 deg rotation - cart. axis [1,-1,0]  

 cryst.   s(30) = (     0          1          0      )
                  (     1          0          0      )
                  (     0          0          1      )

 cart.    s(30) = (  0.0000000  1.0000000  0.0000000 )
                  (  1.0000000  0.0000000  0.0000000 )
                  (  0.0000000  0.0000000  1.0000000 )


      isym = 31     inv.  90 deg rotation - cart. axis [0,0,-1]  

 cryst.   s(31) = (     0          1          0      )
                  (    -1          0          0      )
                  (     0          0         -1      )

 cart.    s(31) = (  0.0000000 -1.0000000  0.0000000 )
                  (  1.0000000  0.0000000  0.0000000 )
                  (  0.0000000  0.0000000 -1.0000000 )


      isym = 32     inv.  90 deg rotation - cart. axis [0,0,1]   

 cryst.   s(32) = (     0         -1          0      )
                  (     1          0          0      )
                  (     0          0         -1      )

 cart.    s(32) = (  0.0000000  1.0000000  0.0000000 )
                  ( -1.0000000  0.0000000  0.0000000 )
                  (  0.0000000  0.0000000 -1.0000000 )


      isym = 33     inv. 180 deg rotation - cart. axis [1,0,1]   

 cryst.   s(33) = (     0          0         -1      )
                  (     0          1          0      )
                  (    -1          0          0      )

 cart.    s(33) = (  0.0000000  0.0000000 -1.0000000 )
                  (  0.0000000  1.0000000  0.0000000 )
                  ( -1.0000000  0.0000000  0.0000000 )


      isym = 34     inv. 180 deg rotation - cart. axis [-1,0,1]  

 cryst.   s(34) = (     0          0          1      )
                  (     0          1          0      )
                  (     1          0          0      )

 cart.    s(34) = (  0.0000000  0.0000000  1.0000000 )
                  (  0.0000000  1.0000000  0.0000000 )
                  (  1.0000000  0.0000000  0.0000000 )


      isym = 35     inv.  90 deg rotation - cart. axis [0,1,0]   

 cryst.   s(35) = (     0          0          1      )
                  (     0         -1          0      )
                  (    -1          0          0      )

 cart.    s(35) = (  0.0000000  0.0000000 -1.0000000 )
                  (  0.0000000 -1.0000000  0.0000000 )
                  (  1.0000000  0.0000000  0.0000000 )


      isym = 36     inv.  90 deg rotation - cart. axis [0,-1,0]  

 cryst.   s(36) = (     0          0         -1      )
                  (     0         -1          0      )
                  (     1          0          0      )

 cart.    s(36) = (  0.0000000  0.0000000  1.0000000 )
                  (  0.0000000 -1.0000000  0.0000000 )
                  ( -1.0000000  0.0000000  0.0000000 )


      isym = 37     inv. 180 deg rotation - cart. axis [0,1,1]   

 cryst.   s(37) = (     1          0          0      )
                  (     0          0         -1      )
                  (     0         -1          0      )

 cart.    s(37) = (  1.0000000  0.0000000  0.0000000 )
                  (  0.0000000  0.0000000 -1.0000000 )
                  (  0.0000000 -1.0000000  0.0000000 )


      isym = 38     inv. 180 deg rotation - cart. axis [0,1,-1]  

 cryst.   s(38) = (     1          0          0      )
                  (     0          0          1      )
                  (     0          1          0      )

 cart.    s(38) = (  1.0000000  0.0000000  0.0000000 )
                  (  0.0000000  0.0000000  1.0000000 )
                  (  0.0000000  1.0000000  0.0000000 )


      isym = 39     inv.  90 deg rotation - cart. axis [-1,0,0]  

 cryst.   s(39) = (    -1          0          0      )
                  (     0          0          1      )
                  (     0         -1          0      )

 cart.    s(39) = ( -1.0000000  0.0000000  0.0000000 )
                  (  0.0000000  0.0000000 -1.0000000 )
                  (  0.0000000  1.0000000  0.0000000 )


      isym = 40     inv.  90 deg rotation - cart. axis [1,0,0]   

 cryst.   s(40) = (    -1          0          0      )
                  (     0          0         -1      )
                  (     0          1          0      )

 cart.    s(40) = ( -1.0000000  0.0000000  0.0000000 )
                  (  0.0000000  0.0000000  1.0000000 )
                  (  0.0000000 -1.0000000  0.0000000 )


      isym = 41     inv. 120 deg rotation - cart. axis [-1,-1,-1]

 cryst.   s(41) = (     0          0         -1      )
                  (    -1          0          0      )
                  (     0         -1          0      )

 cart.    s(41) = (  0.0000000 -1.0000000  0.0000000 )
                  (  0.0000000  0.0000000 -1.0000000 )
                  ( -1.0000000  0.0000000  0.0000000 )


      isym = 42     inv. 120 deg rotation - cart. axis [-1,1,1]  

 cryst.   s(42) = (     0          0          1      )
                  (     1          0          0      )
                  (     0         -1          0      )

 cart.    s(42) = (  0.0000000  1.0000000  0.0000000 )
                  (  0.0000000  0.0000000 -1.0000000 )
                  (  1.0000000  0.0000000  0.0000000 )


      isym = 43     inv. 120 deg rotation - cart. axis [1,1,-1]  

 cryst.   s(43) = (     0          0          1      )
                  (    -1          0          0      )
                  (     0          1          0      )

 cart.    s(43) = (  0.0000000 -1.0000000  0.0000000 )
                  (  0.0000000  0.0000000  1.0000000 )
                  (  1.0000000  0.0000000  0.0000000 )


      isym = 44     inv. 120 deg rotation - cart. axis [1,-1,1]  

 cryst.   s(44) = (     0          0         -1      )
                  (     1          0          0      )
                  (     0          1          0      )

 cart.    s(44) = (  0.0000000  1.0000000  0.0000000 )
                  (  0.0000000  0.0000000  1.0000000 )
                  ( -1.0000000  0.0000000  0.0000000 )


      isym = 45     inv. 120 deg rotation - cart. axis [1,1,1]   

 cryst.   s(45) = (     0         -1          0      )
                  (     0          0         -1      )
                  (    -1          0          0      )

 cart.    s(45) = (  0.0000000  0.0000000 -1.0000000 )
                  ( -1.0000000  0.0000000  0.0000000 )
                  (  0.0000000 -1.0000000  0.0000000 )


      isym = 46     inv. 120 deg rotation - cart. axis [-1,1,-1] 

 cryst.   s(46) = (     0          1          0      )
                  (     0          0          1      )
                  (    -1          0          0      )

 cart.    s(46) = (  0.0000000  0.0000000 -1.0000000 )
                  (  1.0000000  0.0000000  0.0000000 )
                  (  0.0000000  1.0000000  0.0000000 )


      isym = 47     inv. 120 deg rotation - cart. axis [1,-1,-1] 

 cryst.   s(47) = (     0          1          0      )
                  (     0          0         -1      )
                  (     1          0          0      )

 cart.    s(47) = (  0.0000000  0.0000000  1.0000000 )
                  (  1.0000000  0.0000000  0.0000000 )
                  (  0.0000000 -1.0000000  0.0000000 )


      isym = 48     inv. 120 deg rotation - cart. axis [-1,-1,1] 

 cryst.   s(48) = (     0         -1          0      )
                  (     0          0          1      )
                  (     1          0          0      )

 cart.    s(48) = (  0.0000000  0.0000000  1.0000000 )
                  ( -1.0000000  0.0000000  0.0000000 )
                  (  0.0000000  1.0000000  0.0000000 )


     point group O_h (m-3m) 
     there are 10 classes
     the character table:

       E     8C3   3C2   6C4   6C2'  i     8S6   3s_h  6S4   6s_d 
A_1g   1.00  1.00  1.00  1.00  1.00  1.00  1.00  1.00  1.00  1.00
A_2g   1.00  1.00  1.00 -1.00 -1.00  1.00  1.00  1.00 -1.00 -1.00
E_g    2.00 -1.00  2.00  0.00  0.00  2.00 -1.00  2.00  0.00  0.00
T_1g   3.00  0.00 -1.00  1.00 -1.00  3.00  0.00 -1.00  1.00 -1.00
T_2g   3.00  0.00 -1.00 -1.00  1.00  3.00  0.00 -1.00 -1.00  1.00
A_1u   1.00  1.00  1.00  1.00  1.00 -1.00 -1.00 -1.00 -1.00 -1.00
A_2u   1.00  1.00  1.00 -1.00 -1.00 -1.00 -1.00 -1.00  1.00  1.00
E_u    2.00 -1.00  2.00  0.00  0.00 -2.00  1.00 -2.00  0.00  0.00
T_1u   3.00  0.00 -1.00  1.00 -1.00 -3.00  0.00  1.00 -1.00  1.00
T_2u   3.00  0.00 -1.00 -1.00  1.00 -3.00  0.00  1.00  1.00 -1.00

     the symmetry operations in each class and the name of the first element:

     E        1
          identity                                               
     8C3     17   19   20   18   24   21   22   23
          120 deg rotation - cart. axis [-1,-1,-1]               
     3C2      2    4    3
          180 deg rotation - cart. axis [0,0,1]                  
     6C4      7    8   15   16   12   11
           90 deg rotation - cart. axis [0,0,-1]                 
     6C2'     5    6   14   13   10    9
          180 deg rotation - cart. axis [1,1,0]                  
     i       25
          inversion                                              
     8S6     41   43   44   42   48   45   46   47
          inv. 120 deg rotation - cart. axis [-1,-1,-1]          
     3s_h    26   28   27
          inv. 180 deg rotation - cart. axis [0,0,1]             
     6S4     31   32   39   40   36   35
          inv.  90 deg rotation - cart. axis [0,0,-1]            
     6s_d    29   30   38   37   34   33
          inv. 180 deg rotation - cart. axis [1,1,0]             

   Cartesian axes

     site n.     atom                  positions (alat units)
         1        Cs     tau(   1) = (   0.7500000   0.7500000   0.7500000  )
         2        Cs     tau(   2) = (   0.2500000   0.7500000   0.2500000  )
         3        Cs     tau(   3) = (   0.7500000   0.2500000   0.2500000  )
         4        Cs     tau(   4) = (   0.2500000   0.2500000   0.7500000  )
         5        Cs     tau(   5) = (   0.7500000   0.7500000   0.2500000  )
         6        Cs     tau(   6) = (   0.7500000   0.2500000   0.7500000  )
         7        Cs     tau(   7) = (   0.2500000   0.7500000   0.7500000  )
         8        Cs     tau(   8) = (   0.2500000   0.2500000   0.2500000  )
         9        Pb     tau(   9) = (   0.0000000   0.5000000   0.0000000  )
        10        Pb     tau(  10) = (   0.5000000   0.0000000   0.0000000  )
        11        Pb     tau(  11) = (   0.0000000   0.0000000   0.5000000  )
        12        Pb     tau(  12) = (   0.0000000   0.5000000   0.5000000  )
        13        Pb     tau(  13) = (   0.5000000   0.5000000   0.0000000  )
        14        Pb     tau(  14) = (   0.5000000   0.0000000   0.5000000  )
        15        Pb     tau(  15) = (   0.5000000   0.5000000   0.5000000  )
        16        I      tau(  16) = (   0.0000000   0.2500000   0.0000000  )
        17        I      tau(  17) = (   0.0000000   0.7500000   0.0000000  )
        18        I      tau(  18) = (   0.2500000   0.0000000   0.0000000  )
        19        I      tau(  19) = (   0.7500000   0.0000000   0.0000000  )
        20        I      tau(  20) = (   0.0000000   0.0000000   0.7500000  )
        21        I      tau(  21) = (   0.0000000   0.0000000   0.2500000  )
        22        I      tau(  22) = (   0.5000000   0.0000000   0.7500000  )
        23        I      tau(  23) = (   0.5000000   0.0000000   0.2500000  )
        24        I      tau(  24) = (   0.7500000   0.5000000   0.0000000  )
        25        I      tau(  25) = (   0.2500000   0.5000000   0.0000000  )
        26        I      tau(  26) = (   0.0000000   0.7500000   0.5000000  )
        27        I      tau(  27) = (   0.0000000   0.2500000   0.5000000  )
        28        I      tau(  28) = (   0.0000000   0.5000000   0.2500000  )
        29        I      tau(  29) = (   0.0000000   0.5000000   0.7500000  )
        30        I      tau(  30) = (   0.5000000   0.7500000   0.0000000  )
        31        I      tau(  31) = (   0.5000000   0.2500000   0.0000000  )
        32        I      tau(  32) = (   0.7500000   0.0000000   0.5000000  )
        33        I      tau(  33) = (   0.2500000   0.0000000   0.5000000  )
        34        I      tau(  34) = (   0.7500000   0.5000000   0.5000000  )
        35        I      tau(  35) = (   0.2500000   0.5000000   0.5000000  )
        36        I      tau(  36) = (   0.5000000   0.5000000   0.2500000  )
        37        I      tau(  37) = (   0.5000000   0.5000000   0.7500000  )
        38        I      tau(  38) = (   0.5000000   0.7500000   0.5000000  )
        39        I      tau(  39) = (   0.5000000   0.2500000   0.5000000  )

   Crystallographic axes

     site n.     atom                  positions (cryst. coord.)
         1        Cs     tau(   1) = (  0.7500000  0.7500000  0.7500000  )
         2        Cs     tau(   2) = (  0.2500000  0.7500000  0.2500000  )
         3        Cs     tau(   3) = (  0.7500000  0.2500000  0.2500000  )
         4        Cs     tau(   4) = (  0.2500000  0.2500000  0.7500000  )
         5        Cs     tau(   5) = (  0.7500000  0.7500000  0.2500000  )
         6        Cs     tau(   6) = (  0.7500000  0.2500000  0.7500000  )
         7        Cs     tau(   7) = (  0.2500000  0.7500000  0.7500000  )
         8        Cs     tau(   8) = (  0.2500000  0.2500000  0.2500000  )
         9        Pb     tau(   9) = (  0.0000000  0.5000000  0.0000000  )
        10        Pb     tau(  10) = (  0.5000000  0.0000000  0.0000000  )
        11        Pb     tau(  11) = (  0.0000000  0.0000000  0.5000000  )
        12        Pb     tau(  12) = (  0.0000000  0.5000000  0.5000000  )
        13        Pb     tau(  13) = (  0.5000000  0.5000000  0.0000000  )
        14        Pb     tau(  14) = (  0.5000000  0.0000000  0.5000000  )
        15        Pb     tau(  15) = (  0.5000000  0.5000000  0.5000000  )
        16        I      tau(  16) = (  0.0000000  0.2500000  0.0000000  )
        17        I      tau(  17) = (  0.0000000  0.7500000  0.0000000  )
        18        I      tau(  18) = (  0.2500000  0.0000000  0.0000000  )
        19        I      tau(  19) = (  0.7500000  0.0000000  0.0000000  )
        20        I      tau(  20) = (  0.0000000  0.0000000  0.7500000  )
        21        I      tau(  21) = (  0.0000000  0.0000000  0.2500000  )
        22        I      tau(  22) = (  0.5000000  0.0000000  0.7500000  )
        23        I      tau(  23) = (  0.5000000  0.0000000  0.2500000  )
        24        I      tau(  24) = (  0.7500000  0.5000000  0.0000000  )
        25        I      tau(  25) = (  0.2500000  0.5000000  0.0000000  )
        26        I      tau(  26) = (  0.0000000  0.7500000  0.5000000  )
        27        I      tau(  27) = (  0.0000000  0.2500000  0.5000000  )
        28        I      tau(  28) = (  0.0000000  0.5000000  0.2500000  )
        29        I      tau(  29) = (  0.0000000  0.5000000  0.7500000  )
        30        I      tau(  30) = (  0.5000000  0.7500000  0.0000000  )
        31        I      tau(  31) = (  0.5000000  0.2500000  0.0000000  )
        32        I      tau(  32) = (  0.7500000  0.0000000  0.5000000  )
        33        I      tau(  33) = (  0.2500000  0.0000000  0.5000000  )
        34        I      tau(  34) = (  0.7500000  0.5000000  0.5000000  )
        35        I      tau(  35) = (  0.2500000  0.5000000  0.5000000  )
        36        I      tau(  36) = (  0.5000000  0.5000000  0.2500000  )
        37        I      tau(  37) = (  0.5000000  0.5000000  0.7500000  )
        38        I      tau(  38) = (  0.5000000  0.7500000  0.5000000  )
        39        I      tau(  39) = (  0.5000000  0.2500000  0.5000000  )

     number of k points=    10  Marzari-Vanderbilt smearing, width (Ry)=  0.1470
                       cart. coord. in units 2pi/alat
        k(    1) = (   0.0000000   0.0000000   0.0000000), wk =   0.0312500
        k(    2) = (   0.0000000   0.0000000   0.2500000), wk =   0.1875000
        k(    3) = (   0.0000000   0.0000000  -0.5000000), wk =   0.0937500
        k(    4) = (   0.0000000   0.2500000   0.2500000), wk =   0.3750000
        k(    5) = (   0.0000000   0.2500000  -0.5000000), wk =   0.3750000
        k(    6) = (   0.0000000  -0.5000000  -0.5000000), wk =   0.0937500
        k(    7) = (   0.2500000   0.2500000   0.2500000), wk =   0.2500000
        k(    8) = (   0.2500000   0.2500000  -0.5000000), wk =   0.3750000
        k(    9) = (   0.2500000  -0.5000000  -0.5000000), wk =   0.1875000
        k(   10) = (  -0.5000000  -0.5000000  -0.5000000), wk =   0.0312500

                       cryst. coord.
        k(    1) = (   0.0000000   0.0000000   0.0000000), wk =   0.0312500
        k(    2) = (   0.0000000   0.0000000   0.2500000), wk =   0.1875000
        k(    3) = (   0.0000000   0.0000000  -0.5000000), wk =   0.0937500
        k(    4) = (   0.0000000   0.2500000   0.2500000), wk =   0.3750000
        k(    5) = (   0.0000000   0.2500000  -0.5000000), wk =   0.3750000
        k(    6) = (   0.0000000  -0.5000000  -0.5000000), wk =   0.0937500
        k(    7) = (   0.2500000   0.2500000   0.2500000), wk =   0.2500000
        k(    8) = (   0.2500000   0.2500000  -0.5000000), wk =   0.3750000
        k(    9) = (   0.2500000  -0.5000000  -0.5000000), wk =   0.1875000
        k(   10) = (  -0.5000000  -0.5000000  -0.5000000), wk =   0.0312500

     Dense  grid:  1305271 G-vectors     FFT dimensions: ( 135, 135, 135)

     Smooth grid:   461719 G-vectors     FFT dimensions: (  96,  96,  96)

     Dynamical RAM for                 wfc:      44.68 MB

     Dynamical RAM for     wfc (w. buffer):     491.47 MB

     Dynamical RAM for           str. fact:      14.94 MB

     Dynamical RAM for           local pot:       0.00 MB

     Dynamical RAM for          nlocal pot:     101.68 MB

     Dynamical RAM for                qrad:       8.62 MB

     Dynamical RAM for          rho,v,vnew:      29.12 MB

     Dynamical RAM for               rhoin:       9.71 MB

     Dynamical RAM for            rho*nmix:      79.67 MB

     Dynamical RAM for           G-vectors:      19.55 MB

     Dynamical RAM for          h,s,v(r/c):       7.55 MB

     Dynamical RAM for          <psi|beta>:       1.43 MB

     Dynamical RAM for                 psi:      89.36 MB

     Dynamical RAM for                hpsi:      89.36 MB

     Dynamical RAM for                spsi:      89.36 MB

     Dynamical RAM for      wfcinit/wfcrot:      90.30 MB

     Dynamical RAM for           addusdens:    1045.64 MB

     Dynamical RAM for          addusforce:    1277.26 MB

     Dynamical RAM for         addusstress:    1000.82 MB

     Estimated static dynamical RAM per process >     718.64 MB

     Estimated max dynamical RAM per process >       2.03 GB

     Estimated total dynamical RAM >       8.11 GB

     Initial potential from superposition of free atoms

     starting charge     337.6666, renormalised to     338.0000
     Starting wfcs are  263 randomized atomic wfcs
     Checking if some PAW data can be deallocated... 
       PAW data deallocated on    1 nodes for type:  2
       PAW data deallocated on    2 nodes for type:  3

     total cpu time spent up to now is       33.9 secs

     Self-consistent Calculation
[tb_dev] Currently allocated     8.15E+00 Mbytes, locked:    0 /   6
[tb_pin] Currently allocated     0.00E+00 Mbytes, locked:    0 /   0

     iteration #  1     ecut=    40.00 Ry     beta= 0.40
     Davidson diagonalization with overlap

---- Real-time Memory Report at c_bands before calling an iterative solver
          1505 MiB given to the printing process from OS
             0 MiB allocation reported by mallinfo(arena+hblkhd)
          1638 MiB available memory on the node where the printing process lives
     GPU memory used/free/total (MiB): 8519 / 3409 / 11928
------------------
     ethr =  1.00E-02,  avg # of iterations =  3.1

     Threshold (ethr) on eigenvalues was too large:
     Diagonalizing with lowered threshold

     Davidson diagonalization with overlap

---- Real-time Memory Report at c_bands before calling an iterative solver
          1533 MiB given to the printing process from OS
             0 MiB allocation reported by mallinfo(arena+hblkhd)
          1537 MiB available memory on the node where the printing process lives
     GPU memory used/free/total (MiB): 9241 / 2687 / 11928
------------------
     ethr =  2.37E-04,  avg # of iterations =  8.4

     total cpu time spent up to now is      204.4 secs

     total energy              =  -15693.66928293 Ry
     estimated scf accuracy    <       0.70779269 Ry
[tb_dev] Currently allocated     2.98E-04 Mbytes, locked:    0 /   2
[tb_pin] Currently allocated     0.00E+00 Mbytes, locked:    0 /   0

     iteration #  2     ecut=    40.00 Ry     beta= 0.40
     Davidson diagonalization with overlap

---- Real-time Memory Report at c_bands before calling an iterative solver
          1550 MiB given to the printing process from OS
             0 MiB allocation reported by mallinfo(arena+hblkhd)
          2624 MiB available memory on the node where the printing process lives
     GPU memory used/free/total (MiB): 9379 / 2549 / 11928
------------------
     ethr =  2.09E-04,  avg # of iterations =  3.6

     total cpu time spent up to now is      291.2 secs

     total energy              =  -15693.57685408 Ry
     estimated scf accuracy    <       1.40765721 Ry
[tb_dev] Currently allocated     2.98E-04 Mbytes, locked:    0 /   2
[tb_pin] Currently allocated     0.00E+00 Mbytes, locked:    0 /   0

     iteration #  3     ecut=    40.00 Ry     beta= 0.40
     Davidson diagonalization with overlap

---- Real-time Memory Report at c_bands before calling an iterative solver
          1557 MiB given to the printing process from OS
             0 MiB allocation reported by mallinfo(arena+hblkhd)
          2651 MiB available memory on the node where the printing process lives
     GPU memory used/free/total (MiB): 9379 / 2549 / 11928
------------------
     ethr =  2.09E-04,  avg # of iterations =  3.3

     total cpu time spent up to now is      369.6 secs

     total energy              =  -15693.76054672 Ry
     estimated scf accuracy    <       1.22821646 Ry
[tb_dev] Currently allocated     2.98E-04 Mbytes, locked:    0 /   2
[tb_pin] Currently allocated     0.00E+00 Mbytes, locked:    0 /   0

     iteration #  4     ecut=    40.00 Ry     beta= 0.40
     Davidson diagonalization with overlap

---- Real-time Memory Report at c_bands before calling an iterative solver
          1564 MiB given to the printing process from OS
             0 MiB allocation reported by mallinfo(arena+hblkhd)
          2666 MiB available memory on the node where the printing process lives
     GPU memory used/free/total (MiB): 9379 / 2549 / 11928
------------------
     ethr =  2.09E-04,  avg # of iterations =  2.3

     total cpu time spent up to now is      437.5 secs

     total energy              =  -15693.83853733 Ry
     estimated scf accuracy    <       0.11619470 Ry
[tb_dev] Currently allocated     2.98E-04 Mbytes, locked:    0 /   2
[tb_pin] Currently allocated     0.00E+00 Mbytes, locked:    0 /   0

     iteration #  5     ecut=    40.00 Ry     beta= 0.40
     Davidson diagonalization with overlap

---- Real-time Memory Report at c_bands before calling an iterative solver
          1568 MiB given to the printing process from OS
             0 MiB allocation reported by mallinfo(arena+hblkhd)
          2661 MiB available memory on the node where the printing process lives
     GPU memory used/free/total (MiB): 9379 / 2549 / 11928
------------------
     ethr =  3.44E-05,  avg # of iterations =  4.8

     total cpu time spent up to now is      516.4 secs

     total energy              =  -15693.85576841 Ry
     estimated scf accuracy    <       0.00809066 Ry
[tb_dev] Currently allocated     2.98E-04 Mbytes, locked:    0 /   2
[tb_pin] Currently allocated     0.00E+00 Mbytes, locked:    0 /   0

     iteration #  6     ecut=    40.00 Ry     beta= 0.40
     Davidson diagonalization with overlap

---- Real-time Memory Report at c_bands before calling an iterative solver
          1573 MiB given to the printing process from OS
             0 MiB allocation reported by mallinfo(arena+hblkhd)
          2655 MiB available memory on the node where the printing process lives
     GPU memory used/free/total (MiB): 9379 / 2549 / 11928
------------------
     c_bands:  2 eigenvalues not converged
     c_bands:  3 eigenvalues not converged
     c_bands:  2 eigenvalues not converged
     c_bands:  1 eigenvalues not converged
     c_bands:  1 eigenvalues not converged
     c_bands:  2 eigenvalues not converged
     c_bands:  2 eigenvalues not converged
     c_bands:  2 eigenvalues not converged
     ethr =  2.39E-06,  avg # of iterations = 18.8

     total cpu time spent up to now is      672.0 secs

     total energy              =  -15693.86126954 Ry
     estimated scf accuracy    <       0.00325947 Ry
[tb_dev] Currently allocated     2.98E-04 Mbytes, locked:    0 /   2
[tb_pin] Currently allocated     0.00E+00 Mbytes, locked:    0 /   0

     iteration #  7     ecut=    40.00 Ry     beta= 0.40
     Davidson diagonalization with overlap

---- Real-time Memory Report at c_bands before calling an iterative solver
          1578 MiB given to the printing process from OS
             0 MiB allocation reported by mallinfo(arena+hblkhd)
          2658 MiB available memory on the node where the printing process lives
     GPU memory used/free/total (MiB): 9379 / 2549 / 11928
------------------
     c_bands:  1 eigenvalues not converged
     ethr =  9.64E-07,  avg # of iterations =  6.7

     total cpu time spent up to now is      752.8 secs

     total energy              =  -15693.86158628 Ry
     estimated scf accuracy    <       0.00024739 Ry
[tb_dev] Currently allocated     2.98E-04 Mbytes, locked:    0 /   2
[tb_pin] Currently allocated     0.00E+00 Mbytes, locked:    0 /   0

     iteration #  8     ecut=    40.00 Ry     beta= 0.40
     Davidson diagonalization with overlap

---- Real-time Memory Report at c_bands before calling an iterative solver
          1583 MiB given to the printing process from OS
             0 MiB allocation reported by mallinfo(arena+hblkhd)
          2649 MiB available memory on the node where the printing process lives
     GPU memory used/free/total (MiB): 9379 / 2549 / 11928
------------------
     ethr =  7.32E-08,  avg # of iterations =  5.4

     total cpu time spent up to now is      852.0 secs

     total energy              =  -15693.86169917 Ry
     estimated scf accuracy    <       0.00005494 Ry
[tb_dev] Currently allocated     2.98E-04 Mbytes, locked:    0 /   2
[tb_pin] Currently allocated     0.00E+00 Mbytes, locked:    0 /   0

     iteration #  9     ecut=    40.00 Ry     beta= 0.40
     Davidson diagonalization with overlap

---- Real-time Memory Report at c_bands before calling an iterative solver
          1591 MiB given to the printing process from OS
             0 MiB allocation reported by mallinfo(arena+hblkhd)
          2568 MiB available memory on the node where the printing process lives
     GPU memory used/free/total (MiB): 9381 / 2547 / 11928
------------------
     ethr =  1.63E-08,  avg # of iterations =  4.3

     total cpu time spent up to now is      933.9 secs

     total energy              =  -15693.86171295 Ry
     estimated scf accuracy    <       0.00000518 Ry
[tb_dev] Currently allocated     2.98E-04 Mbytes, locked:    0 /   2
[tb_pin] Currently allocated     0.00E+00 Mbytes, locked:    0 /   0

     iteration # 10     ecut=    40.00 Ry     beta= 0.40
     Davidson diagonalization with overlap

---- Real-time Memory Report at c_bands before calling an iterative solver
          1597 MiB given to the printing process from OS
             0 MiB allocation reported by mallinfo(arena+hblkhd)
          2591 MiB available memory on the node where the printing process lives
     GPU memory used/free/total (MiB): 9381 / 2547 / 11928
------------------
     ethr =  1.53E-09,  avg # of iterations =  5.8

     total cpu time spent up to now is     1042.6 secs

     total energy              =  -15693.86171566 Ry
     estimated scf accuracy    <       0.00000057 Ry
[tb_dev] Currently allocated     2.98E-04 Mbytes, locked:    0 /   2
[tb_pin] Currently allocated     0.00E+00 Mbytes, locked:    0 /   0

     iteration # 11     ecut=    40.00 Ry     beta= 0.40
     Davidson diagonalization with overlap

---- Real-time Memory Report at c_bands before calling an iterative solver
          1597 MiB given to the printing process from OS
             0 MiB allocation reported by mallinfo(arena+hblkhd)
          2595 MiB available memory on the node where the printing process lives
     GPU memory used/free/total (MiB): 9381 / 2547 / 11928
------------------
     ethr =  1.68E-10,  avg # of iterations =  5.0

     total cpu time spent up to now is     1139.0 secs

     total energy              =  -15693.86171599 Ry
     estimated scf accuracy    <       0.00000006 Ry
[tb_dev] Currently allocated     2.98E-04 Mbytes, locked:    0 /   2
[tb_pin] Currently allocated     0.00E+00 Mbytes, locked:    0 /   0

     iteration # 12     ecut=    40.00 Ry     beta= 0.40
     Davidson diagonalization with overlap

---- Real-time Memory Report at c_bands before calling an iterative solver
          1597 MiB given to the printing process from OS
             0 MiB allocation reported by mallinfo(arena+hblkhd)
          2598 MiB available memory on the node where the printing process lives
     GPU memory used/free/total (MiB): 9381 / 2547 / 11928
------------------
     ethr =  1.87E-11,  avg # of iterations =  6.1

     total cpu time spent up to now is     1257.4 secs

     total energy              =  -15693.86171606 Ry
     estimated scf accuracy    <       0.00000002 Ry
[tb_dev] Currently allocated     2.98E-04 Mbytes, locked:    0 /   2
[tb_pin] Currently allocated     0.00E+00 Mbytes, locked:    0 /   0

     iteration # 13     ecut=    40.00 Ry     beta= 0.40
     Davidson diagonalization with overlap

---- Real-time Memory Report at c_bands before calling an iterative solver
          1597 MiB given to the printing process from OS
             0 MiB allocation reported by mallinfo(arena+hblkhd)
          2591 MiB available memory on the node where the printing process lives
     GPU memory used/free/total (MiB): 9381 / 2547 / 11928
------------------
     ethr =  5.48E-12,  avg # of iterations =  3.2

     total cpu time spent up to now is     1340.0 secs

     total energy              =  -15693.86171607 Ry
     estimated scf accuracy    <          3.5E-09 Ry
[tb_dev] Currently allocated     2.98E-04 Mbytes, locked:    0 /   2
[tb_pin] Currently allocated     0.00E+00 Mbytes, locked:    0 /   0

     iteration # 14     ecut=    40.00 Ry     beta= 0.40
     Davidson diagonalization with overlap

---- Real-time Memory Report at c_bands before calling an iterative solver
          1597 MiB given to the printing process from OS
             0 MiB allocation reported by mallinfo(arena+hblkhd)
          2584 MiB available memory on the node where the printing process lives
     GPU memory used/free/total (MiB): 9381 / 2547 / 11928
------------------
     ethr =  1.05E-12,  avg # of iterations =  5.8

     total cpu time spent up to now is     1453.1 secs

     End of self-consistent calculation

          k = 0.0000 0.0000 0.0000 ( 57747 PWs)   bands (ev):

   -18.5281 -18.5278 -18.5278 -18.5278 -18.5275 -18.5275 -18.5275 -18.5273
   -13.7364 -13.7364 -13.7261 -13.7257 -13.7253 -13.7253 -13.7179 -13.7179
   -13.6728 -13.6728 -13.6728 -13.6695 -13.6695 -13.6695 -13.6694 -13.6694
   -13.6694 -13.6689 -13.6689 -13.6689 -13.6447 -13.6447 -13.6438 -13.6006
   -13.6003 -13.6003 -13.5888 -13.5888 -13.5888 -13.5584 -13.5584 -13.5584
   -13.5583 -13.5583 -13.5583  -9.4496  -9.2573  -9.2573  -9.1428  -8.9757
    -8.9757  -8.9573  -8.9573  -8.9573  -8.9518  -8.9518  -8.9518  -8.9477
    -8.9477  -8.9477  -8.7125  -8.6955  -8.6955  -8.6901  -8.6730  -8.6730
    -8.6730  -8.5448  -8.5448  -5.5296  -5.3271  -5.3271  -5.3271  -5.3127
    -5.3127  -5.3127  -5.3125  -5.3125  -5.3125  -5.3080  -5.3080  -5.3080
    -5.3056  -5.3056  -5.3056  -5.3038  -5.3038  -5.3029  -5.3029  -5.3029
    -5.3024  -5.3024  -5.2970  -5.2944  -5.0220  -5.0220  -4.7578  -4.4463
    -4.4463  -4.0096  -0.7068  -0.7068  -0.7068  -0.6130  -0.6130  -0.6130
    -0.5255  -0.5255  -0.5255   0.2370   0.2370   0.2370   0.5079   0.5079
     0.5079   0.6852   0.6852   0.6852   0.8614   0.8614   0.8614   1.1540
     1.1540   1.1540   1.1722   1.2291   1.2291   1.2291   1.2353   1.2353
     1.2353   1.2690   1.2690   1.2690   1.3253   1.3253   1.3253   1.3638
     1.3638   1.3638   1.4050   1.4050   1.4050   1.4266   1.4266   1.4296
     1.4866   1.4866   1.4866   1.5467   1.5467   1.5467   1.6226   1.6226
     1.6226   1.6583   1.6583   1.7526   1.7526   1.7526   2.0092   2.0092
     2.0092   2.1131   2.1131   2.1131   2.1390   2.1390   2.1725   2.5941
     2.5941   2.8517   4.4395   4.4395   4.4395   4.8004   4.8004   4.8004
     5.0035   5.0035   5.0035   5.9618   6.4957   6.4957   6.4957   6.8011
     6.9634   6.9634   7.4324   7.4324   7.4324   7.4412   7.4412   7.4412
     7.6662   7.6662   7.6892   7.8588   7.8589   7.8589   7.8946   7.8946
     7.8947   7.9689   7.9689

     occupation numbers 
     1.0000   1.0000   1.0000   1.0000   1.0000   1.0000   1.0000   1.0000
     1.0000   1.0000   1.0000   1.0000   1.0000   1.0000   1.0000   1.0000
     1.0000   1.0000   1.0000   1.0000   1.0000   1.0000   1.0000   1.0000
     1.0000   1.0000   1.0000   1.0000   1.0000   1.0000   1.0000   1.0000
     1.0000   1.0000   1.0000   1.0000   1.0000   1.0000   1.0000   1.0000
     1.0000   1.0000   1.0000   1.0000   1.0000   1.0000   1.0000   1.0000
     1.0000   1.0000   1.0000   1.0000   1.0000   1.0000   1.0000   1.0000
     1.0000   1.0000   1.0000   1.0000   1.0000   1.0000   1.0000   1.0000
     1.0000   1.0000   1.0000   1.0000   1.0000   1.0000   1.0000   1.0000
     1.0000   1.0000   1.0000   1.0000   1.0000   1.0000   1.0000   1.0000
     1.0000   1.0000   1.0000   1.0000   1.0000   1.0000   1.0000   1.0000
     1.0000   1.0000   1.0000   1.0000   1.0000   1.0000   1.0000   1.0000
     1.0000   1.0001   1.0458   1.0458   1.0458   1.0502   1.0502   1.0502
     1.0543   1.0543   1.0543   1.0824   1.0824   1.0824   1.0819   1.0819
     1.0819   1.0761   1.0761   1.0761   1.0648   1.0648   1.0648   1.0322
     1.0322   1.0322   1.0295   1.0208   1.0208   1.0208   1.0198   1.0198
     1.0198   1.0142   1.0142   1.0142   1.0043   1.0043   1.0043   0.9971
     0.9971   0.9971   0.9890   0.9890   0.9890   0.9846   0.9846   0.9840
     0.9718   0.9718   0.9718   0.9582   0.9582   0.9582   0.9399   0.9399
     0.9399   0.9308   0.9308   0.9056   0.9056   0.9056   0.8282   0.8282
     0.8282   0.7937   0.7937   0.7937   0.7849   0.7849   0.7733   0.6191
     0.6191   0.5223   0.0976   0.0976   0.0976   0.0568   0.0568   0.0568
     0.0408   0.0408   0.0408   0.0065   0.0019   0.0019   0.0019   0.0009
     0.0006   0.0006   0.0002   0.0002   0.0002   0.0002   0.0002   0.0002
     0.0001   0.0001   0.0001   0.0000   0.0000   0.0000   0.0000   0.0000
     0.0000   0.0000   0.0000

          k = 0.0000 0.0000 0.2500 ( 57648 PWs)   bands (ev):

   -18.5280 -18.5278 -18.5277 -18.5277 -18.5276 -18.5276 -18.5275 -18.5273
   -13.7364 -13.7347 -13.7258 -13.7257 -13.7253 -13.7250 -13.7195 -13.7178
   -13.6728 -13.6728 -13.6728 -13.6695 -13.6695 -13.6695 -13.6694 -13.6694
   -13.6694 -13.6688 -13.6688 -13.6688 -13.6450 -13.6447 -13.6441 -13.6006
   -13.6003 -13.6003 -13.5887 -13.5887 -13.5887 -13.5584 -13.5584 -13.5584
   -13.5584 -13.5584 -13.5583  -9.4311  -9.2872  -9.2369  -9.1562  -9.0752
    -9.0046  -8.9572  -8.9572  -8.9512  -8.9512  -8.9483  -8.9483  -8.9412
    -8.8901  -8.8527  -8.7224  -8.7187  -8.7083  -8.6944  -8.6730  -8.6730
    -8.6454  -8.5592  -8.5471  -5.4664  -5.3248  -5.3248  -5.3235  -5.3141
    -5.3141  -5.3120  -5.3120  -5.3119  -5.3111  -5.3087  -5.3087  -5.3074
    -5.3068  -5.3057  -5.3057  -5.3044  -5.3044  -5.3040  -5.3037  -5.3035
    -5.3035  -5.3023  -5.2984  -5.2960  -5.0721  -4.9543  -4.7634  -4.5443
    -4.4281  -4.1001  -0.6961  -0.6961  -0.6125  -0.6125  -0.5383  -0.5383
    -0.4623  -0.3702  -0.2899   0.2246   0.2266   0.2266   0.5241   0.5496
     0.5496   0.6678   0.7006   0.7246   0.7246   0.7975   0.7975   0.8799
     1.0071   1.0071   1.0136   1.1670   1.1670   1.2332   1.2333   1.2374
     1.2429   1.2429   1.2763   1.2763   1.3209   1.3596   1.3723   1.4025
     1.4056   1.4056   1.4271   1.4488   1.4599   1.4599   1.4730   1.4822
     1.4822   1.5292   1.5292   1.5336   1.5600   1.5600   1.5611   1.6182
     1.6467   1.6488   1.6488   1.7329   1.7329   1.7531   1.9321   1.9321
     1.9757   2.0094   2.0416   2.0416   2.1024   2.1128   2.1873   2.4570
     2.5245   2.6740   4.4959   4.4959   4.7961   4.7961   4.9844   4.9844
     5.0837   5.3832   5.5538   6.1130   6.4946   6.4946   6.5031   6.9164
     7.0441   7.0806   7.0881   7.3318   7.4778   7.5070   7.5070   7.5501
     7.5501   7.5709   7.6160   7.6938   7.7560   7.8175   7.8368   7.8789
     7.8790   7.9200   7.9252

     occupation numbers 
     1.0000   1.0000   1.0000   1.0000   1.0000   1.0000   1.0000   1.0000
     1.0000   1.0000   1.0000   1.0000   1.0000   1.0000   1.0000   1.0000
     1.0000   1.0000   1.0000   1.0000   1.0000   1.0000   1.0000   1.0000
     1.0000   1.0000   1.0000   1.0000   1.0000   1.0000   1.0000   1.0000
     1.0000   1.0000   1.0000   1.0000   1.0000   1.0000   1.0000   1.0000
     1.0000   1.0000   1.0000   1.0000   1.0000   1.0000   1.0000   1.0000
     1.0000   1.0000   1.0000   1.0000   1.0000   1.0000   1.0000   1.0000
     1.0000   1.0000   1.0000   1.0000   1.0000   1.0000   1.0000   1.0000
     1.0000   1.0000   1.0000   1.0000   1.0000   1.0000   1.0000   1.0000
     1.0000   1.0000   1.0000   1.0000   1.0000   1.0000   1.0000   1.0000
     1.0000   1.0000   1.0000   1.0000   1.0000   1.0000   1.0000   1.0000
     1.0000   1.0000   1.0000   1.0000   1.0000   1.0000   1.0000   1.0000
     1.0000   1.0001   1.0463   1.0463   1.0502   1.0502   1.0537   1.0537
     1.0573   1.0615   1.0652   1.0822   1.0823   1.0823   1.0816   1.0810
     1.0810   1.0769   1.0753   1.0740   1.0740   1.0695   1.0695   1.0633
     1.0509   1.0509   1.0501   1.0303   1.0303   1.0201   1.0201   1.0194
     1.0186   1.0186   1.0130   1.0130   1.0051   0.9979   0.9955   0.9895
     0.9889   0.9889   0.9845   0.9800   0.9776   0.9776   0.9748   0.9728
     0.9728   0.9623   0.9623   0.9613   0.9551   0.9551   0.9549   0.9410
     0.9338   0.9333   0.9333   0.9110   0.9110   0.9055   0.8527   0.8527
     0.8390   0.8282   0.8176   0.8176   0.7973   0.7938   0.7682   0.6705
     0.6453   0.5890   0.0900   0.0900   0.0572   0.0572   0.0421   0.0421
     0.0356   0.0208   0.0150   0.0047   0.0020   0.0020   0.0019   0.0007
     0.0005   0.0004   0.0004   0.0002   0.0001   0.0001   0.0001   0.0001
     0.0001   0.0001   0.0001   0.0001   0.0001   0.0001   0.0001   0.0000
     0.0000   0.0000   0.0000

          k = 0.0000 0.0000-0.5000 ( 57624 PWs)   bands (ev):

   -18.5279 -18.5279 -18.5277 -18.5277 -18.5277 -18.5277 -18.5274 -18.5274
   -13.7363 -13.7326 -13.7258 -13.7255 -13.7253 -13.7248 -13.7215 -13.7178
   -13.6728 -13.6728 -13.6728 -13.6695 -13.6695 -13.6695 -13.6694 -13.6694
   -13.6694 -13.6688 -13.6688 -13.6688 -13.6453 -13.6447 -13.6444 -13.6006
   -13.6004 -13.6004 -13.5887 -13.5887 -13.5887 -13.5584 -13.5584 -13.5584
   -13.5584 -13.5584 -13.5583  -9.3988  -9.3339  -9.1942  -9.1575  -9.1501
    -9.0243  -8.9571  -8.9571  -8.9500  -8.9500  -8.9496  -8.9496  -8.9371
    -8.7929  -8.7923  -8.7728  -8.7531  -8.7244  -8.6946  -8.6730  -8.6730
    -8.5984  -8.5966  -8.5493  -5.3607  -5.3192  -5.3192  -5.3192  -5.3192
    -5.3151  -5.3148  -5.3104  -5.3104  -5.3102  -5.3102  -5.3090  -5.3085
    -5.3078  -5.3074  -5.3059  -5.3059  -5.3050  -5.3050  -5.3048  -5.3048
    -5.3016  -5.3009  -5.3007  -5.3004  -5.1727  -4.8185  -4.7574  -4.7093
    -4.3782  -4.2200  -0.6830  -0.6830  -0.6129  -0.6129  -0.5526  -0.5526
     0.0292   0.1398   0.2135   0.2166   0.2166   0.2212   0.2423   0.3414
     0.4335   0.5457   0.6450   0.6567   0.6567   0.6654   0.6654   0.8150
     0.8150   0.8660   0.8660   1.1282   1.1282   1.2350   1.2350   1.2377
     1.2396   1.2637   1.3161   1.3180   1.3702   1.3702   1.3783   1.3783
     1.3983   1.3999   1.4270   1.4347   1.4712   1.4768   1.4768   1.4980
     1.4980   1.5157   1.5206   1.5635   1.5635   1.6148   1.6361   1.7105
     1.7105   1.7294   1.7294   1.7371   1.7371   1.7819   1.8324   1.8420
     1.8420   1.8759   1.8759   2.0096   2.0660   2.1126   2.2370   2.3881
     2.4082   2.6198   4.5688   4.5688   4.7716   4.7716   4.9687   4.9687
     6.1367   6.2745   6.4920   6.4926   6.4926   6.5042   6.5132   6.5471
     6.5702   6.7507   6.8334   7.2190   7.2626   7.2628   7.3117   7.4160
     7.4301   7.5769   7.6861   7.7114   7.7114   7.7383   7.7383   7.8204
     7.8204   7.8367   7.8367

     occupation numbers 
     1.0000   1.0000   1.0000   1.0000   1.0000   1.0000   1.0000   1.0000
     1.0000   1.0000   1.0000   1.0000   1.0000   1.0000   1.0000   1.0000
     1.0000   1.0000   1.0000   1.0000   1.0000   1.0000   1.0000   1.0000
     1.0000   1.0000   1.0000   1.0000   1.0000   1.0000   1.0000   1.0000
     1.0000   1.0000   1.0000   1.0000   1.0000   1.0000   1.0000   1.0000
     1.0000   1.0000   1.0000   1.0000   1.0000   1.0000   1.0000   1.0000
     1.0000   1.0000   1.0000   1.0000   1.0000   1.0000   1.0000   1.0000
     1.0000   1.0000   1.0000   1.0000   1.0000   1.0000   1.0000   1.0000
     1.0000   1.0000   1.0000   1.0000   1.0000   1.0000   1.0000   1.0000
     1.0000   1.0000   1.0000   1.0000   1.0000   1.0000   1.0000   1.0000
     1.0000   1.0000   1.0000   1.0000   1.0000   1.0000   1.0000   1.0000
     1.0000   1.0000   1.0000   1.0000   1.0000   1.0000   1.0000   1.0000
     1.0000   1.0000   1.0469   1.0469   1.0502   1.0502   1.0530   1.0530
     1.0777   1.0806   1.0821   1.0821   1.0821   1.0822   1.0825   1.0833
     1.0830   1.0811   1.0778   1.0773   1.0773   1.0770   1.0770   1.0683
     1.0683   1.0644   1.0644   1.0358   1.0358   1.0198   1.0198   1.0194
     1.0191   1.0151   1.0060   1.0056   0.9958   0.9958   0.9943   0.9943
     0.9903   0.9900   0.9845   0.9829   0.9752   0.9740   0.9740   0.9693
     0.9693   0.9653   0.9642   0.9543   0.9543   0.9418   0.9365   0.9171
     0.9171   0.9120   0.9120   0.9099   0.9099   0.8974   0.8828   0.8800
     0.8800   0.8699   0.8699   0.8281   0.8096   0.7939   0.7507   0.6960
     0.6886   0.6094   0.0810   0.0810   0.0594   0.0594   0.0432   0.0432
     0.0045   0.0033   0.0020   0.0020   0.0020   0.0019   0.0019   0.0017
     0.0016   0.0010   0.0008   0.0003   0.0003   0.0003   0.0002   0.0002
     0.0002   0.0001   0.0001   0.0001   0.0001   0.0001   0.0001   0.0001
     0.0001   0.0001   0.0001

          k = 0.0000 0.2500 0.2500 ( 57594 PWs)   bands (ev):

   -18.5280 -18.5278 -18.5278 -18.5277 -18.5276 -18.5275 -18.5275 -18.5273
   -13.7356 -13.7338 -13.7256 -13.7256 -13.7251 -13.7249 -13.7205 -13.7186
   -13.6728 -13.6728 -13.6728 -13.6695 -13.6695 -13.6695 -13.6694 -13.6694
   -13.6694 -13.6688 -13.6688 -13.6688 -13.6451 -13.6448 -13.6443 -13.6006
   -13.6004 -13.6004 -13.5887 -13.5887 -13.5887 -13.5584 -13.5584 -13.5584
   -13.5584 -13.5583 -13.5583  -9.4124  -9.2824  -9.2520  -9.1694  -9.1076
    -9.0479  -9.0031  -8.9571  -8.9509  -8.9488  -8.9170  -8.8998  -8.8900
    -8.8697  -8.8394  -8.7346  -8.7321  -8.7161  -8.7124  -8.6730  -8.6541
    -8.6379  -8.5660  -8.5560  -5.4037  -5.3241  -5.3216  -5.3191  -5.3147
    -5.3140  -5.3128  -5.3128  -5.3123  -5.3099  -5.3096  -5.3091  -5.3072
    -5.3072  -5.3068  -5.3063  -5.3060  -5.3048  -5.3043  -5.3040  -5.3038
    -5.3024  -5.3016  -5.2993  -5.2967  -5.0462  -4.9626  -4.7683  -4.5779
    -4.4736  -4.1920  -0.6833  -0.6114  -0.5539  -0.4989  -0.4114  -0.3941
    -0.3501  -0.3109  -0.2891   0.1278   0.2171   0.3209   0.5571   0.5662
     0.5716   0.6695   0.6873   0.6929   0.7320   0.7565   0.7680   0.7970
     0.9124   0.9291   0.9571   1.0451   1.0918   1.1323   1.1588   1.1621
     1.1846   1.2460   1.2662   1.2879   1.3072   1.3531   1.3821   1.3987
     1.3996   1.4231   1.4429   1.4475   1.4734   1.4795   1.4854   1.5142
     1.5143   1.5348   1.5401   1.5515   1.5611   1.5924   1.5935   1.5965
     1.6555   1.6788   1.6976   1.7073   1.7494   1.7700   1.8974   1.9109
     1.9172   1.9499   1.9849   2.0281   2.0349   2.0565   2.1360   2.3424
     2.4502   2.4646   4.5539   4.8023   4.9518   5.0869   5.1609   5.3607
     5.3894   5.5328   5.5417   6.2443   6.3443   6.4912   6.6619   7.0120
     7.1272   7.1405   7.1593   7.1624   7.3396   7.3508   7.5120   7.5378
     7.5684   7.6094   7.6349   7.6447   7.6547   7.6592   7.6737   7.6779
     7.6889   7.8303   7.8523

     occupation numbers 
     1.0000   1.0000   1.0000   1.0000   1.0000   1.0000   1.0000   1.0000
     1.0000   1.0000   1.0000   1.0000   1.0000   1.0000   1.0000   1.0000
     1.0000   1.0000   1.0000   1.0000   1.0000   1.0000   1.0000   1.0000
     1.0000   1.0000   1.0000   1.0000   1.0000   1.0000   1.0000   1.0000
     1.0000   1.0000   1.0000   1.0000   1.0000   1.0000   1.0000   1.0000
     1.0000   1.0000   1.0000   1.0000   1.0000   1.0000   1.0000   1.0000
     1.0000   1.0000   1.0000   1.0000   1.0000   1.0000   1.0000   1.0000
     1.0000   1.0000   1.0000   1.0000   1.0000   1.0000   1.0000   1.0000
     1.0000   1.0000   1.0000   1.0000   1.0000   1.0000   1.0000   1.0000
     1.0000   1.0000   1.0000   1.0000   1.0000   1.0000   1.0000   1.0000
     1.0000   1.0000   1.0000   1.0000   1.0000   1.0000   1.0000   1.0000
     1.0000   1.0000   1.0000   1.0000   1.0000   1.0000   1.0000   1.0000
     1.0000   1.0000   1.0469   1.0502   1.0529   1.0555   1.0596   1.0604
     1.0625   1.0643   1.0652   1.0804   1.0821   1.0832   1.0808   1.0806
     1.0804   1.0768   1.0760   1.0757   1.0736   1.0722   1.0715   1.0696
     1.0604   1.0589   1.0561   1.0465   1.0407   1.0353   1.0315   1.0310
     1.0277   1.0180   1.0147   1.0110   1.0076   0.9991   0.9935   0.9903
     0.9901   0.9853   0.9812   0.9803   0.9747   0.9734   0.9721   0.9657
     0.9657   0.9610   0.9598   0.9571   0.9549   0.9474   0.9471   0.9464
     0.9316   0.9255   0.9206   0.9179   0.9065   0.9008   0.8634   0.8593
     0.8573   0.8471   0.8360   0.8220   0.8198   0.8127   0.7859   0.7127
     0.6730   0.6677   0.0828   0.0566   0.0444   0.0354   0.0311   0.0217
     0.0206   0.0157   0.0154   0.0035   0.0028   0.0020   0.0013   0.0005
     0.0004   0.0004   0.0004   0.0004   0.0002   0.0002   0.0001   0.0001
     0.0001   0.0001   0.0001   0.0001   0.0001   0.0001   0.0001   0.0001
     0.0001   0.0001   0.0000

          k = 0.0000 0.2500-0.5000 ( 57722 PWs)   bands (ev):

   -18.5279 -18.5279 -18.5277 -18.5277 -18.5276 -18.5276 -18.5274 -18.5274
   -13.7353 -13.7316 -13.7257 -13.7253 -13.7252 -13.7247 -13.7225 -13.7187
   -13.6728 -13.6728 -13.6728 -13.6695 -13.6695 -13.6695 -13.6695 -13.6695
   -13.6694 -13.6688 -13.6688 -13.6688 -13.6454 -13.6448 -13.6447 -13.6006
   -13.6005 -13.6004 -13.5888 -13.5887 -13.5887 -13.5584 -13.5584 -13.5584
   -13.5584 -13.5584 -13.5583  -9.3782  -9.3210  -9.2338  -9.1670  -9.1562
    -9.0634  -9.0258  -8.9570  -8.9500  -8.9498  -8.9015  -8.8912  -8.8673
    -8.7974  -8.7972  -8.7765  -8.7607  -8.7395  -8.7151  -8.6730  -8.6492
    -8.5992  -8.5985  -8.5606  -5.3252  -5.3196  -5.3195  -5.3185  -5.3122
    -5.3121  -5.3119  -5.3117  -5.3115  -5.3113  -5.3109  -5.3102  -5.3072
    -5.3071  -5.3065  -5.3064  -5.3056  -5.3054  -5.3046  -5.3045  -5.3008
    -5.3008  -5.3005  -5.2999  -5.2814  -5.1280  -4.8903  -4.7236  -4.7170
    -4.4399  -4.3216  -0.6663  -0.6114  -0.5729  -0.4476  -0.3844  -0.3174
     0.0036   0.1524   0.1663   0.2080   0.2310   0.2355   0.2690   0.3157
     0.4306   0.5746   0.6188   0.6556   0.6603   0.6658   0.6951   0.8148
     0.8172   0.8501   0.8654   0.9761   1.0402   1.0550   1.1056   1.1434
     1.2030   1.2260   1.2575   1.2752   1.2911   1.3638   1.3721   1.3812
     1.4030   1.4118   1.4345   1.4457   1.4631   1.4822   1.4920   1.5206
     1.5327   1.5369   1.5408   1.5619   1.6086   1.6202   1.6519   1.6779
     1.7241   1.7388   1.7411   1.7436   1.7689   1.7865   1.8113   1.8457
     1.8655   1.8802   1.9126   1.9551   1.9582   2.0486   2.1661   2.2247
     2.3604   2.4183   4.6336   4.7879   4.9179   5.1824   5.3445   5.5253
     6.1136   6.3023   6.3537   6.4872   6.5019   6.5547   6.6070   6.6200
     6.6706   6.7202   6.8366   7.2642   7.2993   7.3349   7.3593   7.3685
     7.3724   7.4010   7.4473   7.4545   7.5755   7.5769   7.5821   7.6663
     7.7706   7.7710   7.8449

     occupation numbers 
     1.0000   1.0000   1.0000   1.0000   1.0000   1.0000   1.0000   1.0000
     1.0000   1.0000   1.0000   1.0000   1.0000   1.0000   1.0000   1.0000
     1.0000   1.0000   1.0000   1.0000   1.0000   1.0000   1.0000   1.0000
     1.0000   1.0000   1.0000   1.0000   1.0000   1.0000   1.0000   1.0000
     1.0000   1.0000   1.0000   1.0000   1.0000   1.0000   1.0000   1.0000
     1.0000   1.0000   1.0000   1.0000   1.0000   1.0000   1.0000   1.0000
     1.0000   1.0000   1.0000   1.0000   1.0000   1.0000   1.0000   1.0000
     1.0000   1.0000   1.0000   1.0000   1.0000   1.0000   1.0000   1.0000
     1.0000   1.0000   1.0000   1.0000   1.0000   1.0000   1.0000   1.0000
     1.0000   1.0000   1.0000   1.0000   1.0000   1.0000   1.0000   1.0000
     1.0000   1.0000   1.0000   1.0000   1.0000   1.0000   1.0000   1.0000
     1.0000   1.0000   1.0000   1.0000   1.0000   1.0000   1.0000   1.0000
     1.0000   1.0000   1.0477   1.0502   1.0520   1.0579   1.0609   1.0640
     1.0768   1.0809   1.0812   1.0820   1.0823   1.0824   1.0828   1.0832
     1.0830   1.0803   1.0789   1.0774   1.0772   1.0769   1.0756   1.0683
     1.0682   1.0657   1.0645   1.0542   1.0471   1.0453   1.0389   1.0337
     1.0249   1.0213   1.0161   1.0131   1.0104   0.9971   0.9955   0.9937
     0.9894   0.9876   0.9830   0.9806   0.9770   0.9728   0.9706   0.9642
     0.9615   0.9605   0.9596   0.9547   0.9434   0.9405   0.9325   0.9257
     0.9134   0.9094   0.9088   0.9081   0.9011   0.8961   0.8890   0.8789
     0.8730   0.8686   0.8587   0.8455   0.8445   0.8153   0.7755   0.7550
     0.7062   0.6849   0.0735   0.0579   0.0470   0.0300   0.0224   0.0159
     0.0047   0.0031   0.0027   0.0020   0.0019   0.0017   0.0015   0.0014
     0.0013   0.0011   0.0008   0.0003   0.0002   0.0002   0.0002   0.0002
     0.0002   0.0002   0.0002   0.0002   0.0001   0.0001   0.0001   0.0001
     0.0001   0.0001   0.0000

          k = 0.0000-0.5000-0.5000 ( 57836 PWs)   bands (ev):

   -18.5278 -18.5278 -18.5278 -18.5278 -18.5275 -18.5275 -18.5275 -18.5275
   -13.7346 -13.7286 -13.7257 -13.7257 -13.7250 -13.7250 -13.7246 -13.7193
   -13.6728 -13.6728 -13.6728 -13.6695 -13.6695 -13.6695 -13.6695 -13.6695
   -13.6695 -13.6689 -13.6688 -13.6688 -13.6456 -13.6450 -13.6450 -13.6006
   -13.6005 -13.6005 -13.5888 -13.5888 -13.5887 -13.5584 -13.5584 -13.5584
   -13.5584 -13.5584 -13.5584  -9.3309  -9.3034  -9.3034  -9.1926  -9.1278
    -9.0800  -9.0800  -8.9568  -8.9500  -8.9500  -8.8314  -8.8273  -8.8273
    -8.8242  -8.8229  -8.7688  -8.7688  -8.7572  -8.7504  -8.6730  -8.6238
    -8.6003  -8.6003  -8.5780  -5.3186  -5.3184  -5.3165  -5.3161  -5.3161
    -5.3150  -5.3150  -5.3130  -5.3122  -5.3119  -5.3083  -5.3082  -5.3082
    -5.3080  -5.3062  -5.3062  -5.3053  -5.3053  -5.3047  -5.3047  -5.3015
    -5.3010  -5.3002  -5.2987  -5.1281  -5.0698  -5.0698  -4.7515  -4.5760
    -4.5003  -4.5003  -0.6327  -0.6099  -0.6099  -0.0278   0.0289   0.0778
     0.0778   0.0788   0.1942   0.1996   0.2379   0.2379   0.2761   0.3349
     0.3349   0.3836   0.4065   0.4525   0.6182   0.6631   0.6631   0.7367
     0.8058   0.8463   0.9114   0.9114   0.9731   0.9980   0.9980   1.0646
     1.0746   1.0746   1.1228   1.2701   1.3339   1.3680   1.3680   1.3705
     1.3705   1.3942   1.4294   1.4310   1.4863   1.5203   1.5203   1.5221
     1.5311   1.5311   1.5857   1.6268   1.6277   1.6765   1.6765   1.7208
     1.7251   1.7251   1.7259   1.7659   1.7922   1.7922   1.8068   1.8180
     1.8839   1.8965   1.9111   1.9111   1.9485   1.9485   2.1036   2.1113
     2.3215   2.3215   4.7609   4.8044   4.8044   6.0435   6.3132   6.3132
     6.3188   6.3604   6.3993   6.4816   6.5234   6.5234   6.5702   6.6383
     6.6383   6.6601   6.6877   6.8953   6.9468   6.9468   6.9503   7.0153
     7.3790   7.3790   7.3977   7.4325   7.5769   7.5769   7.5976   7.5989
     7.6513   7.6750   7.6761

     occupation numbers 
     1.0000   1.0000   1.0000   1.0000   1.0000   1.0000   1.0000   1.0000
     1.0000   1.0000   1.0000   1.0000   1.0000   1.0000   1.0000   1.0000
     1.0000   1.0000   1.0000   1.0000   1.0000   1.0000   1.0000   1.0000
     1.0000   1.0000   1.0000   1.0000   1.0000   1.0000   1.0000   1.0000
     1.0000   1.0000   1.0000   1.0000   1.0000   1.0000   1.0000   1.0000
     1.0000   1.0000   1.0000   1.0000   1.0000   1.0000   1.0000   1.0000
     1.0000   1.0000   1.0000   1.0000   1.0000   1.0000   1.0000   1.0000
     1.0000   1.0000   1.0000   1.0000   1.0000   1.0000   1.0000   1.0000
     1.0000   1.0000   1.0000   1.0000   1.0000   1.0000   1.0000   1.0000
     1.0000   1.0000   1.0000   1.0000   1.0000   1.0000   1.0000   1.0000
     1.0000   1.0000   1.0000   1.0000   1.0000   1.0000   1.0000   1.0000
     1.0000   1.0000   1.0000   1.0000   1.0000   1.0000   1.0000   1.0000
     1.0000   1.0000   1.0493   1.0503   1.0503   1.0758   1.0776   1.0791
     1.0791   1.0791   1.0817   1.0818   1.0824   1.0824   1.0829   1.0833
     1.0833   1.0833   1.0832   1.0828   1.0789   1.0771   1.0771   1.0734
     1.0690   1.0660   1.0605   1.0605   1.0545   1.0518   1.0518   1.0441
     1.0429   1.0429   1.0366   1.0140   1.0027   0.9963   0.9963   0.9958
     0.9958   0.9912   0.9840   0.9837   0.9719   0.9643   0.9643   0.9639
     0.9618   0.9618   0.9490   0.9388   0.9386   0.9261   0.9261   0.9143
     0.9131   0.9131   0.9129   0.9019   0.8945   0.8945   0.8903   0.8871
     0.8675   0.8637   0.8592   0.8592   0.8476   0.8476   0.7969   0.7943
     0.7204   0.7204   0.0605   0.0564   0.0564   0.0055   0.0030   0.0030
     0.0030   0.0027   0.0024   0.0020   0.0018   0.0018   0.0016   0.0014
     0.0014   0.0013   0.0012   0.0007   0.0006   0.0006   0.0006   0.0005
     0.0002   0.0002   0.0002   0.0002   0.0001   0.0001   0.0001   0.0001
     0.0001   0.0001   0.0001

          k = 0.2500 0.2500 0.2500 ( 57718 PWs)   bands (ev):

   -18.5280 -18.5278 -18.5278 -18.5278 -18.5276 -18.5276 -18.5276 -18.5274
   -13.7337 -13.7337 -13.7255 -13.7253 -13.7249 -13.7249 -13.7204 -13.7204
   -13.6728 -13.6728 -13.6728 -13.6695 -13.6695 -13.6695 -13.6694 -13.6694
   -13.6694 -13.6688 -13.6688 -13.6688 -13.6451 -13.6451 -13.6446 -13.6006
   -13.6005 -13.6005 -13.5887 -13.5887 -13.5887 -13.5584 -13.5584 -13.5584
   -13.5584 -13.5584 -13.5583  -9.3935  -9.2637  -9.2637  -9.1958  -9.1110
    -9.1110  -9.0475  -8.9172  -8.9172  -8.9149  -8.9002  -8.9002  -8.8841
    -8.8428  -8.8428  -8.7441  -8.7352  -8.7352  -8.7300  -8.6544  -8.6544
    -8.6329  -8.5686  -8.5686  -5.3461  -5.3222  -5.3222  -5.3142  -5.3141
    -5.3141  -5.3131  -5.3131  -5.3119  -5.3113  -5.3095  -5.3095  -5.3076
    -5.3076  -5.3073  -5.3069  -5.3069  -5.3049  -5.3049  -5.3029  -5.3025
    -5.3025  -5.3014  -5.2984  -5.2945  -4.9800  -4.9800  -4.7935  -4.5704
    -4.5704  -4.2840  -0.4895  -0.4895  -0.4180  -0.3559  -0.3559  -0.3503
    -0.3157  -0.3157  -0.3059   0.0447   0.3094   0.3094   0.5680   0.5839
     0.5839   0.6590   0.6590   0.6658   0.7469   0.7471   0.7487   0.7487
     0.8688   0.8688   0.9596   0.9596   1.0970   1.1041   1.1041   1.1182
     1.1714   1.1714   1.1869   1.1996   1.2473   1.2473   1.3438   1.3478
     1.3478   1.3985   1.3985   1.4298   1.4759   1.4759   1.5430   1.5538
     1.5745   1.5745   1.5841   1.5908   1.5950   1.5950   1.6278   1.6278
     1.6905   1.6905   1.7324   1.7534   1.7534   1.7626   1.8897   1.8897
     1.9107   1.9238   1.9238   1.9663   2.0093   2.0093   2.0185   2.1997
     2.3172   2.3172   5.1302   5.1302   5.2376   5.3429   5.3977   5.3977
     5.5053   5.5053   5.5075   6.1676   6.3765   6.6546   6.6546   7.0758
     7.1423   7.1423   7.1668   7.2274   7.2274   7.3330   7.3330   7.3791
     7.5434   7.5652   7.5652   7.5794   7.5794   7.5948   7.6019   7.6844
     7.6845   7.7330   7.7336

     occupation numbers 
     1.0000   1.0000   1.0000   1.0000   1.0000   1.0000   1.0000   1.0000
     1.0000   1.0000   1.0000   1.0000   1.0000   1.0000   1.0000   1.0000
     1.0000   1.0000   1.0000   1.0000   1.0000   1.0000   1.0000   1.0000
     1.0000   1.0000   1.0000   1.0000   1.0000   1.0000   1.0000   1.0000
     1.0000   1.0000   1.0000   1.0000   1.0000   1.0000   1.0000   1.0000
     1.0000   1.0000   1.0000   1.0000   1.0000   1.0000   1.0000   1.0000
     1.0000   1.0000   1.0000   1.0000   1.0000   1.0000   1.0000   1.0000
     1.0000   1.0000   1.0000   1.0000   1.0000   1.0000   1.0000   1.0000
     1.0000   1.0000   1.0000   1.0000   1.0000   1.0000   1.0000   1.0000
     1.0000   1.0000   1.0000   1.0000   1.0000   1.0000   1.0000   1.0000
     1.0000   1.0000   1.0000   1.0000   1.0000   1.0000   1.0000   1.0000
     1.0000   1.0000   1.0000   1.0000   1.0000   1.0000   1.0000   1.0000
     1.0000   1.0000   1.0560   1.0560   1.0593   1.0622   1.0622   1.0625
     1.0640   1.0640   1.0645   1.0781   1.0832   1.0832   1.0805   1.0800
     1.0800   1.0772   1.0772   1.0769   1.0728   1.0728   1.0727   1.0727
     1.0642   1.0642   1.0559   1.0559   1.0400   1.0391   1.0391   1.0372
     1.0297   1.0297   1.0273   1.0254   1.0178   1.0178   1.0009   1.0001
     1.0001   0.9903   0.9903   0.9839   0.9742   0.9742   0.9591   0.9566
     0.9517   0.9517   0.9494   0.9477   0.9467   0.9467   0.9386   0.9386
     0.9224   0.9224   0.9112   0.9054   0.9054   0.9028   0.8657   0.8657
     0.8593   0.8553   0.8553   0.8420   0.8282   0.8282   0.8252   0.7638
     0.7219   0.7219   0.0328   0.0328   0.0272   0.0224   0.0203   0.0203
     0.0165   0.0165   0.0165   0.0042   0.0026   0.0013   0.0013   0.0004
     0.0004   0.0004   0.0003   0.0003   0.0003   0.0002   0.0002   0.0002
     0.0001   0.0001   0.0001   0.0001   0.0001   0.0001   0.0001   0.0001
     0.0001   0.0001   0.0001

          k = 0.2500 0.2500-0.5000 ( 57692 PWs)   bands (ev):

   -18.5279 -18.5279 -18.5277 -18.5277 -18.5277 -18.5277 -18.5275 -18.5275
   -13.7337 -13.7311 -13.7256 -13.7251 -13.7250 -13.7247 -13.7230 -13.7204
   -13.6728 -13.6728 -13.6728 -13.6695 -13.6695 -13.6695 -13.6695 -13.6695
   -13.6694 -13.6688 -13.6688 -13.6688 -13.6454 -13.6451 -13.6450 -13.6006
   -13.6005 -13.6005 -13.5887 -13.5887 -13.5887 -13.5584 -13.5584 -13.5584
   -13.5584 -13.5584 -13.5584  -9.3580  -9.3067  -9.2281  -9.1989  -9.1731
    -9.1098  -9.0810  -8.9168  -8.9038  -8.9014  -8.8987  -8.8830  -8.8545
    -8.7998  -8.7997  -8.7843  -8.7702  -8.7526  -8.7343  -8.6548  -8.6463
    -8.6011  -8.6007  -8.5710  -5.3199  -5.3187  -5.3178  -5.3177  -5.3129
    -5.3127  -5.3123  -5.3121  -5.3120  -5.3117  -5.3115  -5.3100  -5.3088
    -5.3084  -5.3082  -5.3082  -5.3053  -5.3052  -5.3032  -5.3028  -5.3020
    -5.3019  -5.2988  -5.2970  -5.2157  -5.0770  -4.8492  -4.7895  -4.7306
    -4.5152  -4.4211  -0.4744  -0.4015  -0.3923  -0.3631  -0.3436  -0.3339
    -0.0425   0.1704   0.1705   0.2055   0.2288   0.2419   0.2846   0.3010
     0.4135   0.5793   0.6176   0.6272   0.6435   0.6508   0.7505   0.7636
     0.8558   0.8561   0.8833   0.9749   0.9825   1.0158   1.0903   1.0956
     1.1661   1.1762   1.1800   1.1888   1.2241   1.2301   1.2530   1.3002
     1.3022   1.3281   1.3717   1.4156   1.4535   1.5194   1.5458   1.5726
     1.5877   1.6079   1.6114   1.6205   1.6333   1.6439   1.7044   1.7154
     1.7282   1.7483   1.7510   1.7579   1.7607   1.7784   1.8193   1.8298
     1.8456   1.8680   1.8923   1.8926   1.9309   2.0009   2.0113   2.1237
     2.2460   2.2627   5.1918   5.2706   5.3439   5.3739   5.4753   5.4796
     6.0098   6.3223   6.3315   6.4876   6.5466   6.5918   6.6454   6.6457
     6.7159   6.7417   6.8217   7.2353   7.2399   7.2561   7.2889   7.2990
     7.3398   7.4037   7.4372   7.4453   7.4496   7.4959   7.5058   7.5653
     7.5979   7.6182   7.7370

     occupation numbers 
     1.0000   1.0000   1.0000   1.0000   1.0000   1.0000   1.0000   1.0000
     1.0000   1.0000   1.0000   1.0000   1.0000   1.0000   1.0000   1.0000
     1.0000   1.0000   1.0000   1.0000   1.0000   1.0000   1.0000   1.0000
     1.0000   1.0000   1.0000   1.0000   1.0000   1.0000   1.0000   1.0000
     1.0000   1.0000   1.0000   1.0000   1.0000   1.0000   1.0000   1.0000
     1.0000   1.0000   1.0000   1.0000   1.0000   1.0000   1.0000   1.0000
     1.0000   1.0000   1.0000   1.0000   1.0000   1.0000   1.0000   1.0000
     1.0000   1.0000   1.0000   1.0000   1.0000   1.0000   1.0000   1.0000
     1.0000   1.0000   1.0000   1.0000   1.0000   1.0000   1.0000   1.0000
     1.0000   1.0000   1.0000   1.0000   1.0000   1.0000   1.0000   1.0000
     1.0000   1.0000   1.0000   1.0000   1.0000   1.0000   1.0000   1.0000
     1.0000   1.0000   1.0000   1.0000   1.0000   1.0000   1.0000   1.0000
     1.0000   1.0000   1.0567   1.0601   1.0605   1.0619   1.0628   1.0632
     1.0753   1.0813   1.0813   1.0819   1.0823   1.0825   1.0830   1.0831
     1.0832   1.0802   1.0789   1.0785   1.0779   1.0776   1.0726   1.0718
     1.0652   1.0652   1.0630   1.0543   1.0535   1.0499   1.0409   1.0402
     1.0304   1.0290   1.0284   1.0271   1.0216   1.0206   1.0169   1.0088
     1.0084   1.0038   0.9956   0.9869   0.9790   0.9645   0.9584   0.9521
     0.9485   0.9436   0.9427   0.9404   0.9372   0.9345   0.9187   0.9158
     0.9123   0.9068   0.9061   0.9041   0.9033   0.8984   0.8867   0.8836
     0.8790   0.8723   0.8650   0.8649   0.8531   0.8309   0.8275   0.7901
     0.7475   0.7415   0.0295   0.0256   0.0224   0.0212   0.0175   0.0174
     0.0059   0.0029   0.0029   0.0020   0.0017   0.0015   0.0014   0.0014
     0.0011   0.0011   0.0009   0.0003   0.0003   0.0003   0.0002   0.0002
     0.0002   0.0002   0.0002   0.0002   0.0002   0.0001   0.0001   0.0001
[...]
     atom   33 type  2   force =    -0.30721500   -0.00000000    0.00000000
     atom   34 type  2   force =     0.00517098    0.00000000    0.00000000
     atom   35 type  2   force =    -0.00517098    0.00000000    0.00000000
     atom   36 type  2   force =    -0.00000000    0.00000000   -0.00517098
     atom   37 type  2   force =    -0.00000000    0.00000000    0.00517098
     atom   38 type  2   force =    -0.00000000    0.00517098    0.00000000
     atom   39 type  2   force =    -0.00000000   -0.00517098    0.00000000
     The local contribution  to forces
     atom    1 type  1   force =    -0.54568059   -0.54568059   -0.54568059
     atom    2 type  1   force =     0.54568059   -0.54568059    0.54568059
     atom    3 type  1   force =    -0.54568059    0.54568059    0.54568059
     atom    4 type  1   force =     0.54568059    0.54568059   -0.54568059
     atom    5 type  1   force =    -0.54568059   -0.54568059    0.54568059
     atom    6 type  1   force =    -0.54568059    0.54568059   -0.54568059
     atom    7 type  1   force =     0.54568059   -0.54568059   -0.54568059
     atom    8 type  1   force =     0.54568059    0.54568059    0.54568059
     atom    9 type  3   force =     0.00000000    0.00000000    0.00000000
     atom   10 type  3   force =    -0.00000000    0.00000000    0.00000000
     atom   11 type  3   force =     0.00000000    0.00000000   -0.00000000
     atom   12 type  3   force =     0.00000000    0.00000000   -0.00000000
     atom   13 type  3   force =    -0.00000000    0.00000000    0.00000000
     atom   14 type  3   force =    -0.00000000    0.00000000   -0.00000000
     atom   15 type  3   force =    -0.00000000    0.00000000   -0.00000000
     atom   16 type  2   force =    -0.00000000    4.65629563    0.00000000
     atom   17 type  2   force =     0.00000000   -4.65629563    0.00000000
     atom   18 type  2   force =     4.65629563    0.00000000   -0.00000000
     atom   19 type  2   force =    -4.65629563   -0.00000000    0.00000000
     atom   20 type  2   force =     0.00000000    0.00000000   -4.65629563
     atom   21 type  2   force =     0.00000000    0.00000000    4.65629563
     atom   22 type  2   force =    -0.00000000    0.00000000   -0.30666626
     atom   23 type  2   force =    -0.00000000    0.00000000    0.30666626
     atom   24 type  2   force =    -0.30666626    0.00000000    0.00000000
     atom   25 type  2   force =     0.30666626    0.00000000    0.00000000
     atom   26 type  2   force =     0.00000000   -0.30666626   -0.00000000
     atom   27 type  2   force =     0.00000000    0.30666626   -0.00000000
     atom   28 type  2   force =     0.00000000    0.00000000    0.30666626
     atom   29 type  2   force =    -0.00000000    0.00000000   -0.30666626
     atom   30 type  2   force =    -0.00000000   -0.30666626    0.00000000
     atom   31 type  2   force =    -0.00000000    0.30666626    0.00000000
     atom   32 type  2   force =    -0.30666626    0.00000000   -0.00000000
     atom   33 type  2   force =     0.30666626    0.00000000   -0.00000000
     atom   34 type  2   force =    -0.00595362    0.00000000   -0.00000000
     atom   35 type  2   force =     0.00595362    0.00000000   -0.00000000
     atom   36 type  2   force =    -0.00000000    0.00000000    0.00595362
     atom   37 type  2   force =    -0.00000000    0.00000000   -0.00595362
     atom   38 type  2   force =    -0.00000000   -0.00595362   -0.00000000
     atom   39 type  2   force =    -0.00000000    0.00595362   -0.00000000
     The core correction contribution to forces
     atom    1 type  1   force =     0.00042035    0.00042035    0.00042035
     atom    2 type  1   force =    -0.00042035    0.00042035   -0.00042035
     atom    3 type  1   force =     0.00042035   -0.00042035   -0.00042035
     atom    4 type  1   force =    -0.00042035   -0.00042035    0.00042035
     atom    5 type  1   force =     0.00042035    0.00042035   -0.00042035
     atom    6 type  1   force =     0.00042035   -0.00042035    0.00042035
     atom    7 type  1   force =    -0.00042035    0.00042035    0.00042035
     atom    8 type  1   force =    -0.00042035   -0.00042035   -0.00042035
     atom    9 type  3   force =     0.00000000    0.00000000    0.00000000
     atom   10 type  3   force =    -0.00000000   -0.00000000    0.00000000
     atom   11 type  3   force =     0.00000000   -0.00000000   -0.00000000
     atom   12 type  3   force =     0.00000000    0.00000000   -0.00000000
     atom   13 type  3   force =    -0.00000000    0.00000000   -0.00000000
     atom   14 type  3   force =    -0.00000000    0.00000000   -0.00000000
     atom   15 type  3   force =    -0.00000000    0.00000000   -0.00000000
     atom   16 type  2   force =     0.00000000   -0.00840074    0.00000000
     atom   17 type  2   force =     0.00000000    0.00840074    0.00000000
     atom   18 type  2   force =    -0.00840074    0.00000000    0.00000000
     atom   19 type  2   force =     0.00840074    0.00000000    0.00000000
     atom   20 type  2   force =     0.00000000    0.00000000    0.00840074
     atom   21 type  2   force =     0.00000000    0.00000000   -0.00840074
     atom   22 type  2   force =     0.00000000    0.00000000    0.00003266
     atom   23 type  2   force =     0.00000000    0.00000000   -0.00003266
     atom   24 type  2   force =     0.00003266   -0.00000000    0.00000000
     atom   25 type  2   force =    -0.00003266   -0.00000000    0.00000000
     atom   26 type  2   force =     0.00000000    0.00003266   -0.00000000
     atom   27 type  2   force =     0.00000000   -0.00003266   -0.00000000
     atom   28 type  2   force =     0.00000000   -0.00000000   -0.00003266
     atom   29 type  2   force =     0.00000000   -0.00000000    0.00003266
     atom   30 type  2   force =     0.00000000    0.00003266    0.00000000
     atom   31 type  2   force =     0.00000000   -0.00003266    0.00000000
     atom   32 type  2   force =     0.00003266    0.00000000   -0.00000000
     atom   33 type  2   force =    -0.00003266    0.00000000   -0.00000000
     atom   34 type  2   force =    -0.00005784   -0.00000000   -0.00000000
     atom   35 type  2   force =     0.00005784   -0.00000000   -0.00000000
     atom   36 type  2   force =     0.00000000   -0.00000000    0.00005784
     atom   37 type  2   force =     0.00000000   -0.00000000   -0.00005784
     atom   38 type  2   force =     0.00000000   -0.00005784   -0.00000000
     atom   39 type  2   force =     0.00000000    0.00005784   -0.00000000
     The Hubbard contrib.    to forces
     atom    1 type  1   force =     0.00000000    0.00000000    0.00000000
     atom    2 type  1   force =     0.00000000    0.00000000    0.00000000
     atom    3 type  1   force =     0.00000000    0.00000000    0.00000000
     atom    4 type  1   force =     0.00000000    0.00000000    0.00000000
     atom    5 type  1   force =     0.00000000    0.00000000    0.00000000
     atom    6 type  1   force =     0.00000000    0.00000000    0.00000000
     atom    7 type  1   force =     0.00000000    0.00000000    0.00000000
     atom    8 type  1   force =     0.00000000    0.00000000    0.00000000
     atom    9 type  3   force =     0.00000000    0.00000000    0.00000000
     atom   10 type  3   force =     0.00000000    0.00000000    0.00000000
     atom   11 type  3   force =     0.00000000    0.00000000    0.00000000
     atom   12 type  3   force =     0.00000000    0.00000000    0.00000000
     atom   13 type  3   force =     0.00000000    0.00000000    0.00000000
     atom   14 type  3   force =     0.00000000    0.00000000    0.00000000
     atom   15 type  3   force =     0.00000000    0.00000000    0.00000000
     atom   16 type  2   force =     0.00000000    0.00000000    0.00000000
     atom   17 type  2   force =     0.00000000    0.00000000    0.00000000
     atom   18 type  2   force =     0.00000000    0.00000000    0.00000000
     atom   19 type  2   force =     0.00000000    0.00000000    0.00000000
     atom   20 type  2   force =     0.00000000    0.00000000    0.00000000
     atom   21 type  2   force =     0.00000000    0.00000000    0.00000000
     atom   22 type  2   force =     0.00000000    0.00000000    0.00000000
     atom   23 type  2   force =     0.00000000    0.00000000    0.00000000
     atom   24 type  2   force =     0.00000000    0.00000000    0.00000000
     atom   25 type  2   force =     0.00000000    0.00000000    0.00000000
     atom   26 type  2   force =     0.00000000    0.00000000    0.00000000
     atom   27 type  2   force =     0.00000000    0.00000000    0.00000000
     atom   28 type  2   force =     0.00000000    0.00000000    0.00000000
     atom   29 type  2   force =     0.00000000    0.00000000    0.00000000
     atom   30 type  2   force =     0.00000000    0.00000000    0.00000000
     atom   31 type  2   force =     0.00000000    0.00000000    0.00000000
     atom   32 type  2   force =     0.00000000    0.00000000    0.00000000
     atom   33 type  2   force =     0.00000000    0.00000000    0.00000000
     atom   34 type  2   force =     0.00000000    0.00000000    0.00000000
     atom   35 type  2   force =     0.00000000    0.00000000    0.00000000
     atom   36 type  2   force =     0.00000000    0.00000000    0.00000000
     atom   37 type  2   force =     0.00000000    0.00000000    0.00000000
     atom   38 type  2   force =     0.00000000    0.00000000    0.00000000
     atom   39 type  2   force =     0.00000000    0.00000000    0.00000000
     The SCF correction term to forces
     atom    1 type  1   force =     0.00000004    0.00000004    0.00000004
     atom    2 type  1   force =    -0.00000004    0.00000004   -0.00000004
     atom    3 type  1   force =     0.00000004   -0.00000004   -0.00000004
     atom    4 type  1   force =    -0.00000004   -0.00000004    0.00000004
     atom    5 type  1   force =     0.00000004    0.00000004   -0.00000004
     atom    6 type  1   force =     0.00000004   -0.00000004    0.00000004
     atom    7 type  1   force =    -0.00000004    0.00000004    0.00000004
     atom    8 type  1   force =    -0.00000004   -0.00000004   -0.00000004
     atom    9 type  3   force =    -0.00000000    0.00000000   -0.00000000
     atom   10 type  3   force =    -0.00000000   -0.00000000   -0.00000000
     atom   11 type  3   force =    -0.00000000    0.00000000    0.00000000
     atom   12 type  3   force =     0.00000000   -0.00000000    0.00000000
     atom   13 type  3   force =    -0.00000000    0.00000000   -0.00000000
     atom   14 type  3   force =     0.00000000    0.00000000    0.00000000
     atom   15 type  3   force =     0.00000000   -0.00000000    0.00000000
     atom   16 type  2   force =    -0.00000000    0.00000020   -0.00000000
     atom   17 type  2   force =    -0.00000000   -0.00000020    0.00000000
     atom   18 type  2   force =     0.00000020   -0.00000000    0.00000000
     atom   19 type  2   force =    -0.00000020   -0.00000000    0.00000000
     atom   20 type  2   force =    -0.00000000   -0.00000000   -0.00000020
     atom   21 type  2   force =    -0.00000000   -0.00000000    0.00000020
     atom   22 type  2   force =    -0.00000000   -0.00000000   -0.00000043
     atom   23 type  2   force =     0.00000000   -0.00000000    0.00000043
     atom   24 type  2   force =    -0.00000043   -0.00000000    0.00000000
     atom   25 type  2   force =     0.00000043   -0.00000000    0.00000000
     atom   26 type  2   force =     0.00000000   -0.00000043    0.00000000
     atom   27 type  2   force =     0.00000000    0.00000043    0.00000000
     atom   28 type  2   force =     0.00000000   -0.00000000    0.00000043
     atom   29 type  2   force =     0.00000000   -0.00000000   -0.00000043
     atom   30 type  2   force =    -0.00000000   -0.00000043    0.00000000
     atom   31 type  2   force =    -0.00000000    0.00000043    0.00000000
     atom   32 type  2   force =    -0.00000043    0.00000000    0.00000000
     atom   33 type  2   force =     0.00000043    0.00000000   -0.00000000
     atom   34 type  2   force =     0.00000102   -0.00000000    0.00000000
     atom   35 type  2   force =    -0.00000102   -0.00000000   -0.00000000
     atom   36 type  2   force =     0.00000000   -0.00000000   -0.00000102
     atom   37 type  2   force =    -0.00000000   -0.00000000    0.00000102
     atom   38 type  2   force =     0.00000000    0.00000102    0.00000000
     atom   39 type  2   force =    -0.00000000   -0.00000102    0.00000000

     Total force =     0.000290     Total SCF correction =     0.000003


     Computing stress (Cartesian axis) and pressure

          total   stress  (Ry/bohr**3)                   (kbar)     P=       -0.15
  -0.00000100   0.00000000   0.00000000           -0.15        0.00        0.00
   0.00000000  -0.00000100   0.00000000            0.00       -0.15        0.00
   0.00000000   0.00000000  -0.00000100            0.00        0.00       -0.15

     kinetic stress (kbar)   3482.12      0.00      0.00
                                0.00   3482.12      0.00
                                0.00      0.00   3482.12

     local   stress (kbar)   -272.88      0.00      0.00
                                0.00   -272.88     -0.00
                                0.00     -0.00   -272.88

     nonloc. stress (kbar)    947.76      0.00      0.00
                                0.00    947.76      0.00
                                0.00      0.00    947.76

     hartree stress (kbar)   1881.34     -0.00     -0.00
                               -0.00   1881.34     -0.00
                               -0.00     -0.00   1881.34

     exc-cor stress (kbar)  12688.19      0.00     -0.00
                                0.00  12688.19      0.00
                               -0.00      0.00  12688.19

     corecor stress (kbar) -14317.59      0.00     -0.00
                                0.00 -14317.59     -0.00
                               -0.00     -0.00 -14317.59

     ewald   stress (kbar)  -4409.09      0.00     -0.00
                                0.00  -4409.09      0.00
                               -0.00      0.00  -4409.09

     hubbard stress (kbar)      0.00      0.00      0.00
                                0.00      0.00      0.00
                                0.00      0.00      0.00

     DFT-D   stress (kbar)      0.00      0.00      0.00
                                0.00      0.00      0.00
                                0.00      0.00      0.00

     XDM     stress (kbar)      0.00      0.00      0.00
                                0.00      0.00      0.00
                                0.00      0.00      0.00

     dft-nl  stress (kbar)      0.00      0.00      0.00
                                0.00      0.00      0.00
                                0.00      0.00      0.00

     TS-vdW  stress (kbar)      0.00      0.00      0.00
                                0.00      0.00      0.00
                                0.00      0.00      0.00

     MDB     stress (kbar)      0.00      0.00      0.00
                                0.00      0.00      0.00
                                0.00      0.00      0.00

     3D-RISM stress (kbar)      0.00      0.00      0.00
                                0.00      0.00      0.00
                                0.00      0.00      0.00


     Writing all to output data dir ../out/CsPbI3_Pb_vac.save/ :
     XML data file, charge density, pseudopotentials, collected wavefunctions
 
     init_run     :     65.57s CPU     66.13s WALL (       2 calls)
     electrons    :  34129.50s CPU  34132.27s WALL (      26 calls)
     update_pot   :     32.68s CPU     32.68s WALL (      24 calls)
     forces       :    589.96s CPU    589.94s WALL (      26 calls)
     stress       :   1905.16s CPU   1904.98s WALL (      26 calls)

     Called by init_run:
     wfcinit      :     58.26s CPU     58.56s WALL (       2 calls)
     wfcinit:atom :      1.79s CPU      1.79s WALL (      20 calls)
     wfcinit:wfcr :     55.57s CPU     55.65s WALL (      20 calls)
     potinit      :      2.79s CPU      2.84s WALL (       2 calls)
     hinit0       :      1.28s CPU      1.32s WALL (       2 calls)

     Called by electrons:
     c_bands      :  29072.63s CPU  29073.26s WALL (     393 calls)
     sum_band     :   4105.66s CPU   4106.01s WALL (     393 calls)
     v_of_rho     :     50.29s CPU     50.38s WALL (     400 calls)
     v_h          :      8.17s CPU      8.20s WALL (     400 calls)
     v_xc         :     47.73s CPU     47.80s WALL (     452 calls)
     newd         :    488.85s CPU    488.94s WALL (     400 calls)
                                      488.76s GPU  (     400 calls)
     PAW_pot      :    450.72s CPU    450.66s WALL (     424 calls)
     mix_rho      :     30.53s CPU     30.57s WALL (     393 calls)

     Called by c_bands:
     init_us_2    :    279.20s CPU    279.21s WALL (    8640 calls)
     cegterg      :  28378.57s CPU  28379.11s WALL (    3940 calls)

     Called by sum_band:
     sum_band:wei :      0.98s CPU      0.98s WALL (     393 calls)
     sum_band:loo :   3642.70s CPU   3642.99s WALL (     393 calls)
     sum_band:buf :    142.54s CPU    142.53s WALL (    3930 calls)
     sum_band:ini :    105.49s CPU    105.50s WALL (    3930 calls)
     sum_band:cal :   1987.20s CPU   1987.03s WALL (    4170 calls)
     sum_band:bec :    200.90s CPU    200.87s WALL (    4170 calls)
     addusdens    :    442.41s CPU    442.40s WALL (     393 calls)
                                      442.33s GPU  (     393 calls)
     addusd:skk   :     11.84s CPU     12.25s WALL (    1179 calls)
                                       11.83s GPU  (    1179 calls)

     Called by *egterg:
     cdiaghg      :    450.81s CPU    452.81s WALL (   18200 calls)
                                      448.49s GPU  (   18200 calls)
     cegterg:over :   5308.78s CPU   5308.39s WALL (   14700 calls)
     cegterg:upda :   2049.84s CPU   2049.55s WALL (   14700 calls)
     cegterg:last :   3888.65s CPU   3887.91s WALL (    8123 calls)
     h_psi        :  13383.12s CPU  13424.24s WALL (   18660 calls)
                                    13412.80s GPU  (   18660 calls)
     s_psi        :    593.50s CPU    593.43s WALL (   18660 calls)
     g_psi        :      0.08s CPU     91.65s WALL (   14700 calls)
                                       11.40s GPU  (   14700 calls)

     Called by h_psi:
     h_psi:calbec :   4639.84s CPU   4643.63s WALL (   18660 calls)
                                     4578.86s GPU  (   18660 calls)
     vloc_psi     :   5591.77s CPU   5600.31s WALL (   18660 calls)
                                     5593.08s GPU  (   18660 calls)
     add_vuspsi   :    314.95s CPU   3049.60s WALL (   18660 calls)
                                     3045.43s GPU  (   18660 calls)

     General routines
     calbec       :   8737.98s CPU   8737.56s WALL (   27250 calls)
     fft          :     28.19s CPU     38.12s WALL (    5841 calls)
                                       25.69s GPU  (    5441 calls)
     ffts         :      3.23s CPU      3.45s WALL (     793 calls)
                                        1.47s GPU  (     393 calls)
     fftw         :   4590.55s CPU   5186.86s WALL (  318690 calls)
                                     4417.62s GPU  (  318690 calls)
     interpolate  :     11.66s CPU     12.06s WALL (     400 calls)
 
     Parallel routines

     PAW routines
     PAW_pot      :    450.72s CPU    450.66s WALL (     424 calls)
     PAW_symme    :      1.24s CPU      1.25s WALL (     817 calls)
 
     PWSCF        :     10h15m CPU     10h15m WALL

 
   This run was terminated on:  12:42:17   5Mar2025            

=------------------------------------------------------------------------------=
   JOB DONE.
=------------------------------------------------------------------------------=
