
     Program PWSCF v.7.4 starts on  7Mar2025 at  2:20:29 

     This program is part of the open-source Quantum ESPRESSO suite
     for quantum simulation of materials; please cite
         "P. Giannozzi et al., J. Phys.:Condens. Matter 21 395502 (2009);
         "P. Giannozzi et al., J. Phys.:Condens. Matter 29 465901 (2017);
         "P. Giannozzi et al., J. Chem. Phys. 152 154105 (2020);
          URL http://www.quantum-espresso.org", 
     in publications or presentations arising from this work. More details at
     http://www.quantum-espresso.org/quote

     Parallel version (MPI), running on     6 processors

     MPI processes distributed on     1 nodes
     6495 MiB available memory on the printing compute node when the environment starts
 
     Waiting for input...
     Reading input from standard input
Warning: card &CELL ignored
Warning: card CELL_DYNAMICS = 'BFGS' ignored
Warning: card PRESS_CONV_THR= 0.05 ignored
Warning: card CELL_DOFREE = 'ALL' ignored
Warning: card / ignored

     Current dimensions of program PWSCF are:
     Max number of different atomic species (ntypx) = 10
     Max number of k-points (npk) =  40000
     Max angular momentum in pseudopotentials (lmaxx) =  4
     file Pb.pbe-dn-kjpaw_psl.0.2.2.UPF: wavefunction(s)  6S renormalized
 
     R & G space division:  proc/nbgrp/npool/nimage =       6
     Subspace diagonalization in iterative solution of the eigenvalue problem:
     a serial algorithm will be used

 
     Parallelization info
     --------------------
     sticks:   dense  smooth     PW     G-vecs:    dense   smooth      PW
     Min        2348    1174    315               210059    74213   10367
     Max        2349    1175    316               210060    74214   10370
     Sum       14089    7049   1893              1260359   445279   62213
 
     Using Slab Decomposition
 


     bravais-lattice index     =            1
     lattice parameter (alat)  =      23.5367  a.u.
     unit-cell volume          =   13038.7884 (a.u.)^3
     number of atoms/cell      =           39
     number of atomic types    =            3
     number of electrons       =       338.00
     number of Kohn-Sham states=          203
     kinetic-energy cutoff     =      40.0000  Ry
     charge density cutoff     =     320.0000  Ry
     scf convergence threshold =      1.4E-09
     mixing beta               =       0.4000
     number of iterations used =            8  plain     mixing
     Exchange-correlation= SLA  PW   PBX  PBC
                           (   1   4   3   4   0   0   0)

     GPU acceleration is ACTIVE.  1 visible GPUs per MPI rank
     GPU-aware MPI enabled

     Message from routine print_cuda_info:
     High GPU oversubscription detected. Are you sure this is what you want?

     GPU used by master process:

        Device Number: 0
        Device name: NVIDIA RTX A2000 12GB
        Compute capability : 86
        Ratio of single to double precision performance  : 32
        Memory Clock Rate (KHz): 6001000
        Memory Bus Width (bits): 192
        Peak Memory Bandwidth (GB/s): 288.05

     celldm(1)=  23.536709  celldm(2)=   0.000000  celldm(3)=   0.000000
     celldm(4)=   0.000000  celldm(5)=   0.000000  celldm(6)=   0.000000

     crystal axes: (cart. coord. in units of alat)
               a(1) = (   1.000000   0.000000   0.000000 )  
               a(2) = (   0.000000   1.000000   0.000000 )  
               a(3) = (   0.000000   0.000000   1.000000 )  

     reciprocal axes: (cart. coord. in units 2 pi/alat)
               b(1) = (  1.000000  0.000000  0.000000 )  
               b(2) = (  0.000000  1.000000  0.000000 )  
               b(3) = (  0.000000  0.000000  1.000000 )  


     PseudoPot. # 1 for Cs read from file:
     ../pseudo/Cs_pbe_v1.uspp.F.UPF
     MD5 check sum: 3476d69cb178dfad3ffaa59df4e07ca4
     Pseudo is Ultrasoft + core correction, Zval =  9.0
     Generated by new atomic code, or converted to UPF format
     Using radial grid of  905 points,  6 beta functions with: 
                l(1) =   0
                l(2) =   0
                l(3) =   1
                l(4) =   1
                l(5) =   2
                l(6) =   2
     Q(r) pseudized with  6 coefficients,  rinner =    1.500   1.500   1.500
                                                       1.500   1.500

     PseudoPot. # 2 for I  read from file:
     ../pseudo/I.pbe-n-kjpaw_psl.0.2.UPF
     MD5 check sum: d4ef18d9c8f18dc85e5843bca1e50dc0
     Pseudo is Projector augmented-wave + core cor, Zval =  7.0
     Generated using "atomic" code by A. Dal Corso  v.5.0.99 svn rev. 10869
     Shape of augmentation charge: PSQ
     Using radial grid of 1247 points,  4 beta functions with: 
                l(1) =   0
                l(2) =   0
                l(3) =   1
                l(4) =   1
     Q(r) pseudized with 0 coefficients 


     PseudoPot. # 3 for Pb read from file:
     ../pseudo/Pb.pbe-dn-kjpaw_psl.0.2.2.UPF
     MD5 check sum: 9d431e6316058b74ade52399a6cf67da
     Pseudo is Projector augmented-wave + core cor, Zval = 14.0
     Generated using "atomic" code by A. Dal Corso  v.5.0.99 svn rev. 10869
     Shape of augmentation charge: PSQ
     Using radial grid of 1281 points,  6 beta functions with: 
                l(1) =   0
                l(2) =   0
                l(3) =   1
                l(4) =   1
                l(5) =   2
                l(6) =   2
     Q(r) pseudized with 0 coefficients 


     atomic species   valence    mass     pseudopotential
     Cs                9.00   132.90545     Cs( 1.00)
     I                 7.00   126.90447     I ( 1.00)
     Pb               14.00   207.20000     Pb( 1.00)

     48 Sym. Ops., with inversion, found


                                    s                        frac. trans.

      isym =  1     identity                                     

 cryst.   s( 1) = (     1          0          0      )
                  (     0          1          0      )
                  (     0          0          1      )

 cart.    s( 1) = (  1.0000000  0.0000000  0.0000000 )
                  (  0.0000000  1.0000000  0.0000000 )
                  (  0.0000000  0.0000000  1.0000000 )


      isym =  2     180 deg rotation - cart. axis [0,0,1]        

 cryst.   s( 2) = (    -1          0          0      )
                  (     0         -1          0      )
                  (     0          0          1      )

 cart.    s( 2) = ( -1.0000000  0.0000000  0.0000000 )
                  (  0.0000000 -1.0000000  0.0000000 )
                  (  0.0000000  0.0000000  1.0000000 )


      isym =  3     180 deg rotation - cart. axis [0,1,0]        

 cryst.   s( 3) = (    -1          0          0      )
                  (     0          1          0      )
                  (     0          0         -1      )

 cart.    s( 3) = ( -1.0000000  0.0000000  0.0000000 )
                  (  0.0000000  1.0000000  0.0000000 )
                  (  0.0000000  0.0000000 -1.0000000 )


      isym =  4     180 deg rotation - cart. axis [1,0,0]        

 cryst.   s( 4) = (     1          0          0      )
                  (     0         -1          0      )
                  (     0          0         -1      )

 cart.    s( 4) = (  1.0000000  0.0000000  0.0000000 )
                  (  0.0000000 -1.0000000  0.0000000 )
                  (  0.0000000  0.0000000 -1.0000000 )


      isym =  5     180 deg rotation - cart. axis [1,1,0]        

 cryst.   s( 5) = (     0          1          0      )
                  (     1          0          0      )
                  (     0          0         -1      )

 cart.    s( 5) = (  0.0000000  1.0000000  0.0000000 )
                  (  1.0000000  0.0000000  0.0000000 )
                  (  0.0000000  0.0000000 -1.0000000 )


      isym =  6     180 deg rotation - cart. axis [1,-1,0]       

 cryst.   s( 6) = (     0         -1          0      )
                  (    -1          0          0      )
                  (     0          0         -1      )

 cart.    s( 6) = (  0.0000000 -1.0000000  0.0000000 )
                  ( -1.0000000  0.0000000  0.0000000 )
                  (  0.0000000  0.0000000 -1.0000000 )


      isym =  7      90 deg rotation - cart. axis [0,0,-1]       

 cryst.   s( 7) = (     0         -1          0      )
                  (     1          0          0      )
                  (     0          0          1      )

 cart.    s( 7) = (  0.0000000  1.0000000  0.0000000 )
                  ( -1.0000000  0.0000000  0.0000000 )
                  (  0.0000000  0.0000000  1.0000000 )


      isym =  8      90 deg rotation - cart. axis [0,0,1]        

 cryst.   s( 8) = (     0          1          0      )
                  (    -1          0          0      )
                  (     0          0          1      )

 cart.    s( 8) = (  0.0000000 -1.0000000  0.0000000 )
                  (  1.0000000  0.0000000  0.0000000 )
                  (  0.0000000  0.0000000  1.0000000 )


      isym =  9     180 deg rotation - cart. axis [1,0,1]        

 cryst.   s( 9) = (     0          0          1      )
                  (     0         -1          0      )
                  (     1          0          0      )

 cart.    s( 9) = (  0.0000000  0.0000000  1.0000000 )
                  (  0.0000000 -1.0000000  0.0000000 )
                  (  1.0000000  0.0000000  0.0000000 )


      isym = 10     180 deg rotation - cart. axis [-1,0,1]       

 cryst.   s(10) = (     0          0         -1      )
                  (     0         -1          0      )
                  (    -1          0          0      )

 cart.    s(10) = (  0.0000000  0.0000000 -1.0000000 )
                  (  0.0000000 -1.0000000  0.0000000 )
                  ( -1.0000000  0.0000000  0.0000000 )


      isym = 11      90 deg rotation - cart. axis [0,1,0]        

 cryst.   s(11) = (     0          0         -1      )
                  (     0          1          0      )
                  (     1          0          0      )

 cart.    s(11) = (  0.0000000  0.0000000  1.0000000 )
                  (  0.0000000  1.0000000  0.0000000 )
                  ( -1.0000000  0.0000000  0.0000000 )


      isym = 12      90 deg rotation - cart. axis [0,-1,0]       

 cryst.   s(12) = (     0          0          1      )
                  (     0          1          0      )
                  (    -1          0          0      )

 cart.    s(12) = (  0.0000000  0.0000000 -1.0000000 )
                  (  0.0000000  1.0000000  0.0000000 )
                  (  1.0000000  0.0000000  0.0000000 )


      isym = 13     180 deg rotation - cart. axis [0,1,1]        

 cryst.   s(13) = (    -1          0          0      )
                  (     0          0          1      )
                  (     0          1          0      )

 cart.    s(13) = ( -1.0000000  0.0000000  0.0000000 )
                  (  0.0000000  0.0000000  1.0000000 )
                  (  0.0000000  1.0000000  0.0000000 )


      isym = 14     180 deg rotation - cart. axis [0,1,-1]       

 cryst.   s(14) = (    -1          0          0      )
                  (     0          0         -1      )
                  (     0         -1          0      )

 cart.    s(14) = ( -1.0000000  0.0000000  0.0000000 )
                  (  0.0000000  0.0000000 -1.0000000 )
                  (  0.0000000 -1.0000000  0.0000000 )


      isym = 15      90 deg rotation - cart. axis [-1,0,0]       

 cryst.   s(15) = (     1          0          0      )
                  (     0          0         -1      )
                  (     0          1          0      )

 cart.    s(15) = (  1.0000000  0.0000000  0.0000000 )
                  (  0.0000000  0.0000000  1.0000000 )
                  (  0.0000000 -1.0000000  0.0000000 )


      isym = 16      90 deg rotation - cart. axis [1,0,0]        

 cryst.   s(16) = (     1          0          0      )
                  (     0          0          1      )
                  (     0         -1          0      )

 cart.    s(16) = (  1.0000000  0.0000000  0.0000000 )
                  (  0.0000000  0.0000000 -1.0000000 )
                  (  0.0000000  1.0000000  0.0000000 )


      isym = 17     120 deg rotation - cart. axis [-1,-1,-1]     

 cryst.   s(17) = (     0          0          1      )
                  (     1          0          0      )
                  (     0          1          0      )

 cart.    s(17) = (  0.0000000  1.0000000  0.0000000 )
                  (  0.0000000  0.0000000  1.0000000 )
                  (  1.0000000  0.0000000  0.0000000 )


      isym = 18     120 deg rotation - cart. axis [-1,1,1]       

 cryst.   s(18) = (     0          0         -1      )
                  (    -1          0          0      )
                  (     0          1          0      )

 cart.    s(18) = (  0.0000000 -1.0000000  0.0000000 )
                  (  0.0000000  0.0000000  1.0000000 )
                  ( -1.0000000  0.0000000  0.0000000 )


      isym = 19     120 deg rotation - cart. axis [1,1,-1]       

 cryst.   s(19) = (     0          0         -1      )
                  (     1          0          0      )
                  (     0         -1          0      )

 cart.    s(19) = (  0.0000000  1.0000000  0.0000000 )
                  (  0.0000000  0.0000000 -1.0000000 )
                  ( -1.0000000  0.0000000  0.0000000 )


      isym = 20     120 deg rotation - cart. axis [1,-1,1]       

 cryst.   s(20) = (     0          0          1      )
                  (    -1          0          0      )
                  (     0         -1          0      )

 cart.    s(20) = (  0.0000000 -1.0000000  0.0000000 )
                  (  0.0000000  0.0000000 -1.0000000 )
                  (  1.0000000  0.0000000  0.0000000 )


      isym = 21     120 deg rotation - cart. axis [1,1,1]        

 cryst.   s(21) = (     0          1          0      )
                  (     0          0          1      )
                  (     1          0          0      )

 cart.    s(21) = (  0.0000000  0.0000000  1.0000000 )
                  (  1.0000000  0.0000000  0.0000000 )
                  (  0.0000000  1.0000000  0.0000000 )


      isym = 22     120 deg rotation - cart. axis [-1,1,-1]      

 cryst.   s(22) = (     0         -1          0      )
                  (     0          0         -1      )
                  (     1          0          0      )

 cart.    s(22) = (  0.0000000  0.0000000  1.0000000 )
                  ( -1.0000000  0.0000000  0.0000000 )
                  (  0.0000000 -1.0000000  0.0000000 )


      isym = 23     120 deg rotation - cart. axis [1,-1,-1]      

 cryst.   s(23) = (     0         -1          0      )
                  (     0          0          1      )
                  (    -1          0          0      )

 cart.    s(23) = (  0.0000000  0.0000000 -1.0000000 )
                  ( -1.0000000  0.0000000  0.0000000 )
                  (  0.0000000  1.0000000  0.0000000 )


      isym = 24     120 deg rotation - cart. axis [-1,-1,1]      

 cryst.   s(24) = (     0          1          0      )
                  (     0          0         -1      )
                  (    -1          0          0      )

 cart.    s(24) = (  0.0000000  0.0000000 -1.0000000 )
                  (  1.0000000  0.0000000  0.0000000 )
                  (  0.0000000 -1.0000000  0.0000000 )


      isym = 25     inversion                                    

 cryst.   s(25) = (    -1          0          0      )
                  (     0         -1          0      )
                  (     0          0         -1      )

 cart.    s(25) = ( -1.0000000  0.0000000  0.0000000 )
                  (  0.0000000 -1.0000000  0.0000000 )
                  (  0.0000000  0.0000000 -1.0000000 )


      isym = 26     inv. 180 deg rotation - cart. axis [0,0,1]   

 cryst.   s(26) = (     1          0          0      )
                  (     0          1          0      )
                  (     0          0         -1      )

 cart.    s(26) = (  1.0000000  0.0000000  0.0000000 )
                  (  0.0000000  1.0000000  0.0000000 )
                  (  0.0000000  0.0000000 -1.0000000 )


      isym = 27     inv. 180 deg rotation - cart. axis [0,1,0]   

 cryst.   s(27) = (     1          0          0      )
                  (     0         -1          0      )
                  (     0          0          1      )

 cart.    s(27) = (  1.0000000  0.0000000  0.0000000 )
                  (  0.0000000 -1.0000000  0.0000000 )
                  (  0.0000000  0.0000000  1.0000000 )


      isym = 28     inv. 180 deg rotation - cart. axis [1,0,0]   

 cryst.   s(28) = (    -1          0          0      )
                  (     0          1          0      )
                  (     0          0          1      )

 cart.    s(28) = ( -1.0000000  0.0000000  0.0000000 )
                  (  0.0000000  1.0000000  0.0000000 )
                  (  0.0000000  0.0000000  1.0000000 )


      isym = 29     inv. 180 deg rotation - cart. axis [1,1,0]   

 cryst.   s(29) = (     0         -1          0      )
                  (    -1          0          0      )
                  (     0          0          1      )

 cart.    s(29) = (  0.0000000 -1.0000000  0.0000000 )
                  ( -1.0000000  0.0000000  0.0000000 )
                  (  0.0000000  0.0000000  1.0000000 )


      isym = 30     inv. 180 deg rotation - cart. axis [1,-1,0]  

 cryst.   s(30) = (     0          1          0      )
                  (     1          0          0      )
                  (     0          0          1      )

 cart.    s(30) = (  0.0000000  1.0000000  0.0000000 )
                  (  1.0000000  0.0000000  0.0000000 )
                  (  0.0000000  0.0000000  1.0000000 )


      isym = 31     inv.  90 deg rotation - cart. axis [0,0,-1]  

 cryst.   s(31) = (     0          1          0      )
                  (    -1          0          0      )
                  (     0          0         -1      )

 cart.    s(31) = (  0.0000000 -1.0000000  0.0000000 )
                  (  1.0000000  0.0000000  0.0000000 )
                  (  0.0000000  0.0000000 -1.0000000 )


      isym = 32     inv.  90 deg rotation - cart. axis [0,0,1]   

 cryst.   s(32) = (     0         -1          0      )
                  (     1          0          0      )
                  (     0          0         -1      )

 cart.    s(32) = (  0.0000000  1.0000000  0.0000000 )
                  ( -1.0000000  0.0000000  0.0000000 )
                  (  0.0000000  0.0000000 -1.0000000 )


      isym = 33     inv. 180 deg rotation - cart. axis [1,0,1]   

 cryst.   s(33) = (     0          0         -1      )
                  (     0          1          0      )
                  (    -1          0          0      )

 cart.    s(33) = (  0.0000000  0.0000000 -1.0000000 )
                  (  0.0000000  1.0000000  0.0000000 )
                  ( -1.0000000  0.0000000  0.0000000 )


      isym = 34     inv. 180 deg rotation - cart. axis [-1,0,1]  

 cryst.   s(34) = (     0          0          1      )
                  (     0          1          0      )
                  (     1          0          0      )

 cart.    s(34) = (  0.0000000  0.0000000  1.0000000 )
                  (  0.0000000  1.0000000  0.0000000 )
                  (  1.0000000  0.0000000  0.0000000 )


      isym = 35     inv.  90 deg rotation - cart. axis [0,1,0]   

 cryst.   s(35) = (     0          0          1      )
                  (     0         -1          0      )
                  (    -1          0          0      )

 cart.    s(35) = (  0.0000000  0.0000000 -1.0000000 )
                  (  0.0000000 -1.0000000  0.0000000 )
                  (  1.0000000  0.0000000  0.0000000 )


      isym = 36     inv.  90 deg rotation - cart. axis [0,-1,0]  

 cryst.   s(36) = (     0          0         -1      )
                  (     0         -1          0      )
                  (     1          0          0      )

 cart.    s(36) = (  0.0000000  0.0000000  1.0000000 )
                  (  0.0000000 -1.0000000  0.0000000 )
                  ( -1.0000000  0.0000000  0.0000000 )


      isym = 37     inv. 180 deg rotation - cart. axis [0,1,1]   

 cryst.   s(37) = (     1          0          0      )
                  (     0          0         -1      )
                  (     0         -1          0      )

 cart.    s(37) = (  1.0000000  0.0000000  0.0000000 )
                  (  0.0000000  0.0000000 -1.0000000 )
                  (  0.0000000 -1.0000000  0.0000000 )


      isym = 38     inv. 180 deg rotation - cart. axis [0,1,-1]  

 cryst.   s(38) = (     1          0          0      )
                  (     0          0          1      )
                  (     0          1          0      )

 cart.    s(38) = (  1.0000000  0.0000000  0.0000000 )
                  (  0.0000000  0.0000000  1.0000000 )
                  (  0.0000000  1.0000000  0.0000000 )


      isym = 39     inv.  90 deg rotation - cart. axis [-1,0,0]  

 cryst.   s(39) = (    -1          0          0      )
                  (     0          0          1      )
                  (     0         -1          0      )

 cart.    s(39) = ( -1.0000000  0.0000000  0.0000000 )
                  (  0.0000000  0.0000000 -1.0000000 )
                  (  0.0000000  1.0000000  0.0000000 )


      isym = 40     inv.  90 deg rotation - cart. axis [1,0,0]   

 cryst.   s(40) = (    -1          0          0      )
                  (     0          0         -1      )
                  (     0          1          0      )

 cart.    s(40) = ( -1.0000000  0.0000000  0.0000000 )
                  (  0.0000000  0.0000000  1.0000000 )
                  (  0.0000000 -1.0000000  0.0000000 )


      isym = 41     inv. 120 deg rotation - cart. axis [-1,-1,-1]

 cryst.   s(41) = (     0          0         -1      )
                  (    -1          0          0      )
                  (     0         -1          0      )

 cart.    s(41) = (  0.0000000 -1.0000000  0.0000000 )
                  (  0.0000000  0.0000000 -1.0000000 )
                  ( -1.0000000  0.0000000  0.0000000 )


      isym = 42     inv. 120 deg rotation - cart. axis [-1,1,1]  

 cryst.   s(42) = (     0          0          1      )
                  (     1          0          0      )
                  (     0         -1          0      )

 cart.    s(42) = (  0.0000000  1.0000000  0.0000000 )
                  (  0.0000000  0.0000000 -1.0000000 )
                  (  1.0000000  0.0000000  0.0000000 )


      isym = 43     inv. 120 deg rotation - cart. axis [1,1,-1]  

 cryst.   s(43) = (     0          0          1      )
                  (    -1          0          0      )
                  (     0          1          0      )

 cart.    s(43) = (  0.0000000 -1.0000000  0.0000000 )
                  (  0.0000000  0.0000000  1.0000000 )
                  (  1.0000000  0.0000000  0.0000000 )


      isym = 44     inv. 120 deg rotation - cart. axis [1,-1,1]  

 cryst.   s(44) = (     0          0         -1      )
                  (     1          0          0      )
                  (     0          1          0      )

 cart.    s(44) = (  0.0000000  1.0000000  0.0000000 )
                  (  0.0000000  0.0000000  1.0000000 )
                  ( -1.0000000  0.0000000  0.0000000 )


      isym = 45     inv. 120 deg rotation - cart. axis [1,1,1]   

 cryst.   s(45) = (     0         -1          0      )
                  (     0          0         -1      )
                  (    -1          0          0      )

 cart.    s(45) = (  0.0000000  0.0000000 -1.0000000 )
                  ( -1.0000000  0.0000000  0.0000000 )
                  (  0.0000000 -1.0000000  0.0000000 )


      isym = 46     inv. 120 deg rotation - cart. axis [-1,1,-1] 

 cryst.   s(46) = (     0          1          0      )
                  (     0          0          1      )
                  (    -1          0          0      )

 cart.    s(46) = (  0.0000000  0.0000000 -1.0000000 )
                  (  1.0000000  0.0000000  0.0000000 )
                  (  0.0000000  1.0000000  0.0000000 )


      isym = 47     inv. 120 deg rotation - cart. axis [1,-1,-1] 

 cryst.   s(47) = (     0          1          0      )
                  (     0          0         -1      )
                  (     1          0          0      )

 cart.    s(47) = (  0.0000000  0.0000000  1.0000000 )
                  (  1.0000000  0.0000000  0.0000000 )
                  (  0.0000000 -1.0000000  0.0000000 )


      isym = 48     inv. 120 deg rotation - cart. axis [-1,-1,1] 

 cryst.   s(48) = (     0         -1          0      )
                  (     0          0          1      )
                  (     1          0          0      )

 cart.    s(48) = (  0.0000000  0.0000000  1.0000000 )
                  ( -1.0000000  0.0000000  0.0000000 )
                  (  0.0000000  1.0000000  0.0000000 )


     point group O_h (m-3m) 
     there are 10 classes
     the character table:

       E     8C3   3C2   6C4   6C2'  i     8S6   3s_h  6S4   6s_d 
A_1g   1.00  1.00  1.00  1.00  1.00  1.00  1.00  1.00  1.00  1.00
A_2g   1.00  1.00  1.00 -1.00 -1.00  1.00  1.00  1.00 -1.00 -1.00
E_g    2.00 -1.00  2.00  0.00  0.00  2.00 -1.00  2.00  0.00  0.00
T_1g   3.00  0.00 -1.00  1.00 -1.00  3.00  0.00 -1.00  1.00 -1.00
T_2g   3.00  0.00 -1.00 -1.00  1.00  3.00  0.00 -1.00 -1.00  1.00
A_1u   1.00  1.00  1.00  1.00  1.00 -1.00 -1.00 -1.00 -1.00 -1.00
A_2u   1.00  1.00  1.00 -1.00 -1.00 -1.00 -1.00 -1.00  1.00  1.00
E_u    2.00 -1.00  2.00  0.00  0.00 -2.00  1.00 -2.00  0.00  0.00
T_1u   3.00  0.00 -1.00  1.00 -1.00 -3.00  0.00  1.00 -1.00  1.00
T_2u   3.00  0.00 -1.00 -1.00  1.00 -3.00  0.00  1.00  1.00 -1.00

     the symmetry operations in each class and the name of the first element:

     E        1
          identity                                               
     8C3     17   19   20   18   24   21   22   23
          120 deg rotation - cart. axis [-1,-1,-1]               
     3C2      2    4    3
          180 deg rotation - cart. axis [0,0,1]                  
     6C4      7    8   15   16   12   11
           90 deg rotation - cart. axis [0,0,-1]                 
     6C2'     5    6   14   13   10    9
          180 deg rotation - cart. axis [1,1,0]                  
     i       25
          inversion                                              
     8S6     41   43   44   42   48   45   46   47
          inv. 120 deg rotation - cart. axis [-1,-1,-1]          
     3s_h    26   28   27
          inv. 180 deg rotation - cart. axis [0,0,1]             
     6S4     31   32   39   40   36   35
          inv.  90 deg rotation - cart. axis [0,0,-1]            
     6s_d    29   30   38   37   34   33
          inv. 180 deg rotation - cart. axis [1,1,0]             

   Cartesian axes

     site n.     atom                  positions (alat units)
         1        Cs     tau(   1) = (   0.2413930   0.2413930   0.2413930  )
         2        Cs     tau(   2) = (   0.7586070   0.2413930   0.7586070  )
         3        Cs     tau(   3) = (   0.2413930   0.7586070   0.7586070  )
         4        Cs     tau(   4) = (   0.7586070   0.7586070   0.2413930  )
         5        Cs     tau(   5) = (   0.2413930   0.2413930   0.7586070  )
         6        Cs     tau(   6) = (   0.2413930   0.7586070   0.2413930  )
         7        Cs     tau(   7) = (   0.7586070   0.2413930   0.2413930  )
         8        Cs     tau(   8) = (   0.7586070   0.7586070   0.7586070  )
         9        Pb     tau(   9) = (   0.5000000   0.0000000   0.0000000  )
        10        Pb     tau(  10) = (   0.0000000   0.0000000   0.5000000  )
        11        Pb     tau(  11) = (   0.0000000   0.5000000   0.0000000  )
        12        Pb     tau(  12) = (   0.5000000   0.0000000   0.5000000  )
        13        Pb     tau(  13) = (   0.0000000   0.5000000   0.5000000  )
        14        Pb     tau(  14) = (   0.5000000   0.5000000   0.0000000  )
        15        Pb     tau(  15) = (   0.5000000   0.5000000   0.5000000  )
        16        I      tau(  16) = (   0.7524150   0.0000000   0.0000000  )
        17        I      tau(  17) = (   0.2475850   0.0000000   0.0000000  )
        18        I      tau(  18) = (   0.0000000   0.0000000   0.2475850  )
        19        I      tau(  19) = (   0.0000000   0.0000000   0.7524150  )
        20        I      tau(  20) = (   0.0000000   0.7524150   0.0000000  )
        21        I      tau(  21) = (   0.0000000   0.2475850   0.0000000  )
        22        I      tau(  22) = (   0.5000000   0.0000000   0.2500130  )
        23        I      tau(  23) = (   0.5000000   0.0000000   0.7499870  )
        24        I      tau(  24) = (   0.2500130   0.5000000   0.0000000  )
        25        I      tau(  25) = (   0.7499870   0.5000000   0.0000000  )
        26        I      tau(  26) = (   0.0000000   0.2500130   0.5000000  )
        27        I      tau(  27) = (   0.0000000   0.7499870   0.5000000  )
        28        I      tau(  28) = (   0.0000000   0.5000000   0.7499870  )
        29        I      tau(  29) = (   0.0000000   0.5000000   0.2500130  )
        30        I      tau(  30) = (   0.5000000   0.2500130   0.0000000  )
        31        I      tau(  31) = (   0.5000000   0.7499870   0.0000000  )
        32        I      tau(  32) = (   0.2500130   0.0000000   0.5000000  )
        33        I      tau(  33) = (   0.7499870   0.0000000   0.5000000  )
        34        I      tau(  34) = (   0.5000000   0.7500680   0.5000000  )
        35        I      tau(  35) = (   0.5000000   0.2499320   0.5000000  )
        36        I      tau(  36) = (   0.7500680   0.5000000   0.5000000  )
        37        I      tau(  37) = (   0.2499320   0.5000000   0.5000000  )
        38        I      tau(  38) = (   0.5000000   0.5000000   0.2499320  )
        39        I      tau(  39) = (   0.5000000   0.5000000   0.7500680  )

   Crystallographic axes

     site n.     atom                  positions (cryst. coord.)
         1        Cs     tau(   1) = (  0.2413930  0.2413930  0.2413930  )
         2        Cs     tau(   2) = (  0.7586070  0.2413930  0.7586070  )
         3        Cs     tau(   3) = (  0.2413930  0.7586070  0.7586070  )
         4        Cs     tau(   4) = (  0.7586070  0.7586070  0.2413930  )
         5        Cs     tau(   5) = (  0.2413930  0.2413930  0.7586070  )
         6        Cs     tau(   6) = (  0.2413930  0.7586070  0.2413930  )
         7        Cs     tau(   7) = (  0.7586070  0.2413930  0.2413930  )
         8        Cs     tau(   8) = (  0.7586070  0.7586070  0.7586070  )
         9        Pb     tau(   9) = (  0.5000000  0.0000000  0.0000000  )
        10        Pb     tau(  10) = (  0.0000000  0.0000000  0.5000000  )
        11        Pb     tau(  11) = (  0.0000000  0.5000000  0.0000000  )
        12        Pb     tau(  12) = (  0.5000000  0.0000000  0.5000000  )
        13        Pb     tau(  13) = (  0.0000000  0.5000000  0.5000000  )
        14        Pb     tau(  14) = (  0.5000000  0.5000000  0.0000000  )
        15        Pb     tau(  15) = (  0.5000000  0.5000000  0.5000000  )
        16        I      tau(  16) = (  0.7524150  0.0000000  0.0000000  )
        17        I      tau(  17) = (  0.2475850  0.0000000  0.0000000  )
        18        I      tau(  18) = (  0.0000000  0.0000000  0.2475850  )
        19        I      tau(  19) = (  0.0000000  0.0000000  0.7524150  )
        20        I      tau(  20) = (  0.0000000  0.7524150  0.0000000  )
        21        I      tau(  21) = (  0.0000000  0.2475850  0.0000000  )
        22        I      tau(  22) = (  0.5000000  0.0000000  0.2500130  )
        23        I      tau(  23) = (  0.5000000  0.0000000  0.7499870  )
        24        I      tau(  24) = (  0.2500130  0.5000000  0.0000000  )
        25        I      tau(  25) = (  0.7499870  0.5000000  0.0000000  )
        26        I      tau(  26) = (  0.0000000  0.2500130  0.5000000  )
        27        I      tau(  27) = (  0.0000000  0.7499870  0.5000000  )
        28        I      tau(  28) = (  0.0000000  0.5000000  0.7499870  )
        29        I      tau(  29) = (  0.0000000  0.5000000  0.2500130  )
        30        I      tau(  30) = (  0.5000000  0.2500130  0.0000000  )
        31        I      tau(  31) = (  0.5000000  0.7499870  0.0000000  )
        32        I      tau(  32) = (  0.2500130  0.0000000  0.5000000  )
        33        I      tau(  33) = (  0.7499870  0.0000000  0.5000000  )
        34        I      tau(  34) = (  0.5000000  0.7500680  0.5000000  )
        35        I      tau(  35) = (  0.5000000  0.2499320  0.5000000  )
        36        I      tau(  36) = (  0.7500680  0.5000000  0.5000000  )
        37        I      tau(  37) = (  0.2499320  0.5000000  0.5000000  )
        38        I      tau(  38) = (  0.5000000  0.5000000  0.2499320  )
        39        I      tau(  39) = (  0.5000000  0.5000000  0.7500680  )

     number of k points=    10  Marzari-Vanderbilt smearing, width (Ry)=  0.1470
                       cart. coord. in units 2pi/alat
        k(    1) = (   0.0000000   0.0000000   0.0000000), wk =   0.0312500
        k(    2) = (   0.0000000   0.0000000   0.2500000), wk =   0.1875000
        k(    3) = (   0.0000000   0.0000000  -0.5000000), wk =   0.0937500
        k(    4) = (   0.0000000   0.2500000   0.2500000), wk =   0.3750000
        k(    5) = (   0.0000000   0.2500000  -0.5000000), wk =   0.3750000
        k(    6) = (   0.0000000  -0.5000000  -0.5000000), wk =   0.0937500
        k(    7) = (   0.2500000   0.2500000   0.2500000), wk =   0.2500000
        k(    8) = (   0.2500000   0.2500000  -0.5000000), wk =   0.3750000
        k(    9) = (   0.2500000  -0.5000000  -0.5000000), wk =   0.1875000
        k(   10) = (  -0.5000000  -0.5000000  -0.5000000), wk =   0.0312500

                       cryst. coord.
        k(    1) = (   0.0000000   0.0000000   0.0000000), wk =   0.0312500
        k(    2) = (   0.0000000   0.0000000   0.2500000), wk =   0.1875000
        k(    3) = (   0.0000000   0.0000000  -0.5000000), wk =   0.0937500
        k(    4) = (   0.0000000   0.2500000   0.2500000), wk =   0.3750000
        k(    5) = (   0.0000000   0.2500000  -0.5000000), wk =   0.3750000
        k(    6) = (   0.0000000  -0.5000000  -0.5000000), wk =   0.0937500
        k(    7) = (   0.2500000   0.2500000   0.2500000), wk =   0.2500000
        k(    8) = (   0.2500000   0.2500000  -0.5000000), wk =   0.3750000
        k(    9) = (   0.2500000  -0.5000000  -0.5000000), wk =   0.1875000
        k(   10) = (  -0.5000000  -0.5000000  -0.5000000), wk =   0.0312500

     Dense  grid:  1260359 G-vectors     FFT dimensions: ( 135, 135, 135)

     Smooth grid:   445279 G-vectors     FFT dimensions: (  96,  96,  96)

     Dynamical RAM for                 wfc:      28.75 MB

     Dynamical RAM for     wfc (w. buffer):     316.30 MB

     Dynamical RAM for           str. fact:       9.62 MB

     Dynamical RAM for           local pot:       0.00 MB

     Dynamical RAM for          nlocal pot:      65.44 MB

     Dynamical RAM for                qrad:       4.31 MB

     Dynamical RAM for          rho,v,vnew:      19.21 MB

     Dynamical RAM for               rhoin:       6.40 MB

     Dynamical RAM for            rho*nmix:      51.28 MB

     Dynamical RAM for           G-vectors:      12.59 MB

     Dynamical RAM for          h,s,v(r/c):       7.55 MB

     Dynamical RAM for          <psi|beta>:       1.43 MB

     Dynamical RAM for                 psi:      57.51 MB

     Dynamical RAM for                hpsi:      57.51 MB

     Dynamical RAM for                spsi:      57.51 MB

     Dynamical RAM for      wfcinit/wfcrot:      58.45 MB

     Dynamical RAM for           addusdens:     673.10 MB

     Dynamical RAM for          addusforce:     822.24 MB

     Dynamical RAM for         addusstress:     644.26 MB

     Estimated static dynamical RAM per process >     462.67 MB

     Estimated max dynamical RAM per process >       1.30 GB

     Estimated total dynamical RAM >       7.83 GB

     Initial potential from superposition of free atoms

     starting charge     337.6666, renormalised to     338.0000
     Starting wfcs are  263 randomized atomic wfcs
     Checking if some PAW data can be deallocated... 
       PAW data deallocated on    2 nodes for type:  2
       PAW data deallocated on    4 nodes for type:  3

     total cpu time spent up to now is       35.1 secs

     Self-consistent Calculation
[tb_dev] Currently allocated     8.15E+00 Mbytes, locked:    0 /   6
[tb_pin] Currently allocated     0.00E+00 Mbytes, locked:    0 /   0

     iteration #  1     ecut=    40.00 Ry     beta= 0.40
     Davidson diagonalization with overlap

---- Real-time Memory Report at c_bands before calling an iterative solver
          1188 MiB given to the printing process from OS
             0 MiB allocation reported by mallinfo(arena+hblkhd)
          1702 MiB available memory on the node where the printing process lives
     GPU memory used/free/total (MiB): 8879 / 3049 / 11928
------------------
     ethr =  1.00E-02,  avg # of iterations =  3.6

     Threshold (ethr) on eigenvalues was too large:
     Diagonalizing with lowered threshold

     Davidson diagonalization with overlap

---- Real-time Memory Report at c_bands before calling an iterative solver
          1211 MiB given to the printing process from OS
             0 MiB allocation reported by mallinfo(arena+hblkhd)
          1662 MiB available memory on the node where the printing process lives
     GPU memory used/free/total (MiB): 9509 / 2419 / 11928
------------------
     ethr =  2.47E-04,  avg # of iterations = 11.8

     total cpu time spent up to now is      222.6 secs

     total energy              =  -15693.64106804 Ry
     estimated scf accuracy    <       0.74288228 Ry
[tb_dev] Currently allocated     2.98E-04 Mbytes, locked:    0 /   2
[tb_pin] Currently allocated     0.00E+00 Mbytes, locked:    0 /   0

     iteration #  2     ecut=    40.00 Ry     beta= 0.40
     Davidson diagonalization with overlap

---- Real-time Memory Report at c_bands before calling an iterative solver
          1222 MiB given to the printing process from OS
             0 MiB allocation reported by mallinfo(arena+hblkhd)
          1625 MiB available memory on the node where the printing process lives
     GPU memory used/free/total (MiB): 9625 / 2303 / 11928
------------------
     ethr =  2.20E-04,  avg # of iterations =  5.9

     total cpu time spent up to now is      318.5 secs

     total energy              =  -15693.48638384 Ry
     estimated scf accuracy    <       2.65162780 Ry
[tb_dev] Currently allocated     2.98E-04 Mbytes, locked:    0 /   2
[tb_pin] Currently allocated     0.00E+00 Mbytes, locked:    0 /   0

     iteration #  3     ecut=    40.00 Ry     beta= 0.40
     Davidson diagonalization with overlap

---- Real-time Memory Report at c_bands before calling an iterative solver
          1232 MiB given to the printing process from OS
             0 MiB allocation reported by mallinfo(arena+hblkhd)
          2043 MiB available memory on the node where the printing process lives
     GPU memory used/free/total (MiB): 9625 / 2303 / 11928
------------------
     ethr =  2.20E-04,  avg # of iterations =  2.7

     total cpu time spent up to now is      399.4 secs

     total energy              =  -15693.80109078 Ry
     estimated scf accuracy    <       0.72184663 Ry
[tb_dev] Currently allocated     2.98E-04 Mbytes, locked:    0 /   2
[tb_pin] Currently allocated     0.00E+00 Mbytes, locked:    0 /   0

     iteration #  4     ecut=    40.00 Ry     beta= 0.40
     Davidson diagonalization with overlap

---- Real-time Memory Report at c_bands before calling an iterative solver
          1234 MiB given to the printing process from OS
             0 MiB allocation reported by mallinfo(arena+hblkhd)
          2009 MiB available memory on the node where the printing process lives
     GPU memory used/free/total (MiB): 9625 / 2303 / 11928
------------------
     ethr =  2.14E-04,  avg # of iterations =  1.0

     total cpu time spent up to now is      465.0 secs

     total energy              =  -15693.84806627 Ry
     estimated scf accuracy    <       0.09031649 Ry
[tb_dev] Currently allocated     2.98E-04 Mbytes, locked:    0 /   2
[tb_pin] Currently allocated     0.00E+00 Mbytes, locked:    0 /   0

     iteration #  5     ecut=    40.00 Ry     beta= 0.40
     Davidson diagonalization with overlap

---- Real-time Memory Report at c_bands before calling an iterative solver
          1238 MiB given to the printing process from OS
             0 MiB allocation reported by mallinfo(arena+hblkhd)
          1979 MiB available memory on the node where the printing process lives
     GPU memory used/free/total (MiB): 9625 / 2303 / 11928
------------------
     ethr =  2.67E-05,  avg # of iterations =  5.2

     total cpu time spent up to now is      549.6 secs

     total energy              =  -15693.86440049 Ry
     estimated scf accuracy    <       0.00771778 Ry
[tb_dev] Currently allocated     2.98E-04 Mbytes, locked:    0 /   2
[tb_pin] Currently allocated     0.00E+00 Mbytes, locked:    0 /   0

     iteration #  6     ecut=    40.00 Ry     beta= 0.40
     Davidson diagonalization with overlap

---- Real-time Memory Report at c_bands before calling an iterative solver
          1241 MiB given to the printing process from OS
             0 MiB allocation reported by mallinfo(arena+hblkhd)
          1970 MiB available memory on the node where the printing process lives
     GPU memory used/free/total (MiB): 9625 / 2303 / 11928
------------------
     c_bands:  4 eigenvalues not converged
     c_bands:  3 eigenvalues not converged
     c_bands:  1 eigenvalues not converged
     c_bands:  2 eigenvalues not converged
     ethr =  2.28E-06,  avg # of iterations = 15.9

     total cpu time spent up to now is      699.1 secs

     total energy              =  -15693.86898608 Ry
     estimated scf accuracy    <       0.00266584 Ry
[tb_dev] Currently allocated     2.98E-04 Mbytes, locked:    0 /   2
[tb_pin] Currently allocated     0.00E+00 Mbytes, locked:    0 /   0

     iteration #  7     ecut=    40.00 Ry     beta= 0.40
     Davidson diagonalization with overlap

---- Real-time Memory Report at c_bands before calling an iterative solver
          1246 MiB given to the printing process from OS
             0 MiB allocation reported by mallinfo(arena+hblkhd)
          1955 MiB available memory on the node where the printing process lives
     GPU memory used/free/total (MiB): 9625 / 2303 / 11928
------------------
     c_bands:  2 eigenvalues not converged
     c_bands:  1 eigenvalues not converged
     ethr =  7.89E-07,  avg # of iterations =  7.4

     total cpu time spent up to now is      788.4 secs

     total energy              =  -15693.86922642 Ry
     estimated scf accuracy    <       0.00037325 Ry
[tb_dev] Currently allocated     2.98E-04 Mbytes, locked:    0 /   2
[tb_pin] Currently allocated     0.00E+00 Mbytes, locked:    0 /   0

     iteration #  8     ecut=    40.00 Ry     beta= 0.40
     Davidson diagonalization with overlap

---- Real-time Memory Report at c_bands before calling an iterative solver
          1248 MiB given to the printing process from OS
             0 MiB allocation reported by mallinfo(arena+hblkhd)
          1962 MiB available memory on the node where the printing process lives
     GPU memory used/free/total (MiB): 9625 / 2303 / 11928
------------------
     c_bands:  1 eigenvalues not converged
     ethr =  1.10E-07,  avg # of iterations =  6.9

     total cpu time spent up to now is      885.9 secs

     total energy              =  -15693.86933986 Ry
     estimated scf accuracy    <       0.00002604 Ry
[tb_dev] Currently allocated     2.98E-04 Mbytes, locked:    0 /   2
[tb_pin] Currently allocated     0.00E+00 Mbytes, locked:    0 /   0

     iteration #  9     ecut=    40.00 Ry     beta= 0.40
     Davidson diagonalization with overlap

---- Real-time Memory Report at c_bands before calling an iterative solver
          1251 MiB given to the printing process from OS
             0 MiB allocation reported by mallinfo(arena+hblkhd)
          1945 MiB available memory on the node where the printing process lives
     GPU memory used/free/total (MiB): 9625 / 2303 / 11928
------------------
     ethr =  7.70E-09,  avg # of iterations =  5.5

     total cpu time spent up to now is     1003.6 secs

     total energy              =  -15693.86935649 Ry
     estimated scf accuracy    <       0.00000313 Ry
[tb_dev] Currently allocated     2.98E-04 Mbytes, locked:    0 /   2
[tb_pin] Currently allocated     0.00E+00 Mbytes, locked:    0 /   0

     iteration # 10     ecut=    40.00 Ry     beta= 0.40
     Davidson diagonalization with overlap

---- Real-time Memory Report at c_bands before calling an iterative solver
          1255 MiB given to the printing process from OS
             0 MiB allocation reported by mallinfo(arena+hblkhd)
          1925 MiB available memory on the node where the printing process lives
     GPU memory used/free/total (MiB): 9625 / 2303 / 11928
------------------
     ethr =  9.27E-10,  avg # of iterations =  4.9

     total cpu time spent up to now is     1099.7 secs

     total energy              =  -15693.86935812 Ry
     estimated scf accuracy    <       0.00000121 Ry
[tb_dev] Currently allocated     2.98E-04 Mbytes, locked:    0 /   2
[tb_pin] Currently allocated     0.00E+00 Mbytes, locked:    0 /   0

     iteration # 11     ecut=    40.00 Ry     beta= 0.40
     Davidson diagonalization with overlap

---- Real-time Memory Report at c_bands before calling an iterative solver
          1255 MiB given to the printing process from OS
             0 MiB allocation reported by mallinfo(arena+hblkhd)
          1918 MiB available memory on the node where the printing process lives
     GPU memory used/free/total (MiB): 9625 / 2303 / 11928
------------------
     ethr =  3.59E-10,  avg # of iterations =  4.4

     total cpu time spent up to now is     1194.7 secs

     total energy              =  -15693.86935855 Ry
     estimated scf accuracy    <       0.00000009 Ry
[tb_dev] Currently allocated     2.98E-04 Mbytes, locked:    0 /   2
[tb_pin] Currently allocated     0.00E+00 Mbytes, locked:    0 /   0

     iteration # 12     ecut=    40.00 Ry     beta= 0.40
     Davidson diagonalization with overlap

---- Real-time Memory Report at c_bands before calling an iterative solver
          1255 MiB given to the printing process from OS
             0 MiB allocation reported by mallinfo(arena+hblkhd)
          1924 MiB available memory on the node where the printing process lives
     GPU memory used/free/total (MiB): 9625 / 2303 / 11928
------------------
     ethr =  2.57E-11,  avg # of iterations =  5.8

     total cpu time spent up to now is     1318.6 secs

     total energy              =  -15693.86935863 Ry
     estimated scf accuracy    <       0.00000007 Ry
[tb_dev] Currently allocated     2.98E-04 Mbytes, locked:    0 /   2
[tb_pin] Currently allocated     0.00E+00 Mbytes, locked:    0 /   0

     iteration # 13     ecut=    40.00 Ry     beta= 0.40
     Davidson diagonalization with overlap

---- Real-time Memory Report at c_bands before calling an iterative solver
          1255 MiB given to the printing process from OS
             0 MiB allocation reported by mallinfo(arena+hblkhd)
          1927 MiB available memory on the node where the printing process lives
     GPU memory used/free/total (MiB): 9625 / 2303 / 11928
------------------
     ethr =  1.97E-11,  avg # of iterations =  3.7

     total cpu time spent up to now is     1402.1 secs

     total energy              =  -15693.86935865 Ry
     estimated scf accuracy    <          8.4E-09 Ry
[tb_dev] Currently allocated     2.98E-04 Mbytes, locked:    0 /   2
[tb_pin] Currently allocated     0.00E+00 Mbytes, locked:    0 /   0

     iteration # 14     ecut=    40.00 Ry     beta= 0.40
     Davidson diagonalization with overlap

---- Real-time Memory Report at c_bands before calling an iterative solver
          1255 MiB given to the printing process from OS
             0 MiB allocation reported by mallinfo(arena+hblkhd)
          1918 MiB available memory on the node where the printing process lives
     GPU memory used/free/total (MiB): 9625 / 2303 / 11928
------------------
     ethr =  2.48E-12,  avg # of iterations =  4.7

     total cpu time spent up to now is     1510.4 secs

     total energy              =  -15693.86935866 Ry
     estimated scf accuracy    <          4.7E-09 Ry
[tb_dev] Currently allocated     2.98E-04 Mbytes, locked:    0 /   2
[tb_pin] Currently allocated     0.00E+00 Mbytes, locked:    0 /   0

     iteration # 15     ecut=    40.00 Ry     beta= 0.40
     Davidson diagonalization with overlap

---- Real-time Memory Report at c_bands before calling an iterative solver
          1255 MiB given to the printing process from OS
             0 MiB allocation reported by mallinfo(arena+hblkhd)
          1912 MiB available memory on the node where the printing process lives
     GPU memory used/free/total (MiB): 9625 / 2303 / 11928
------------------
     ethr =  1.40E-12,  avg # of iterations =  2.2

     total cpu time spent up to now is     1585.2 secs

     End of self-consistent calculation

          k = 0.0000 0.0000 0.0000 ( 55707 PWs)   bands (ev):

   -18.1742 -18.1738 -18.1738 -18.1738 -18.1734 -18.1734 -18.1734 -18.1730
   -13.4578 -13.4578 -13.4517 -13.4502 -13.4502 -13.4486 -13.4352 -13.4352
   -13.3820 -13.3820 -13.3819 -13.3819 -13.3819 -13.3810 -13.3810 -13.3810
   -13.3810 -13.3810 -13.3810 -13.3805 -13.3769 -13.3769 -13.3769 -13.3350
   -13.3345 -13.3345 -13.3153 -13.3153 -13.3153 -13.2871 -13.2871 -13.2871
   -13.2871 -13.2871 -13.2871  -9.2782  -9.0737  -9.0737  -8.9365  -8.7593
    -8.7593  -8.7395  -8.7395  -8.7395  -8.7358  -8.7358  -8.7358  -8.7197
    -8.7197  -8.7197  -8.5003  -8.4438  -8.4438  -8.4438  -8.4417  -8.4342
    -8.4342  -8.2947  -8.2947  -5.3637  -4.9863  -4.9863  -4.9863  -4.9685
    -4.9685  -4.9685  -4.9669  -4.9669  -4.9669  -4.9617  -4.9617  -4.9617
    -4.9575  -4.9575  -4.9575  -4.9561  -4.9561  -4.9556  -4.9556  -4.9550
    -4.9550  -4.9550  -4.9472  -4.9421  -4.8055  -4.8055  -4.5053  -4.1722
    -4.1722  -3.6836  -0.5536  -0.5536  -0.5536  -0.4689  -0.4689  -0.4689
    -0.3662  -0.3662  -0.3662   0.4257   0.4257   0.4257   0.7104   0.7104
     0.7104   0.8865   0.8865   0.8865   1.0889   1.0889   1.0889   1.3322
     1.3977   1.3977   1.3977   1.4824   1.4824   1.4824   1.4865   1.4865
     1.4865   1.4937   1.4937   1.4937   1.5610   1.5610   1.5610   1.5954
     1.5954   1.5954   1.6038   1.6038   1.6038   1.6938   1.7037   1.7037
     1.7655   1.7655   1.7655   1.8216   1.8216   1.8216   1.8373   1.8373
     1.8373   1.9479   1.9479   2.0189   2.0189   2.0189   2.3221   2.3221
     2.3221   2.3768   2.3768   2.3768   2.4652   2.4652   2.5206   2.9440
     2.9440   3.2746   4.7465   4.7465   4.7465   5.1143   5.1143   5.1143
     5.3363   5.3363   5.3363   6.2877   6.7494   6.7494   6.7494   7.0992
     7.2271   7.2271   7.7051   7.7051   7.7051   7.8266   7.8266   7.8266
     7.9469   7.9779   7.9779   8.1698   8.1698   8.1699   8.3176   8.3176
     8.3180   8.3651   8.3652

     occupation numbers 
     1.0000   1.0000   1.0000   1.0000   1.0000   1.0000   1.0000   1.0000
     1.0000   1.0000   1.0000   1.0000   1.0000   1.0000   1.0000   1.0000
     1.0000   1.0000   1.0000   1.0000   1.0000   1.0000   1.0000   1.0000
     1.0000   1.0000   1.0000   1.0000   1.0000   1.0000   1.0000   1.0000
     1.0000   1.0000   1.0000   1.0000   1.0000   1.0000   1.0000   1.0000
     1.0000   1.0000   1.0000   1.0000   1.0000   1.0000   1.0000   1.0000
     1.0000   1.0000   1.0000   1.0000   1.0000   1.0000   1.0000   1.0000
     1.0000   1.0000   1.0000   1.0000   1.0000   1.0000   1.0000   1.0000
     1.0000   1.0000   1.0000   1.0000   1.0000   1.0000   1.0000   1.0000
     1.0000   1.0000   1.0000   1.0000   1.0000   1.0000   1.0000   1.0000
     1.0000   1.0000   1.0000   1.0000   1.0000   1.0000   1.0000   1.0000
     1.0000   1.0000   1.0000   1.0000   1.0000   1.0000   1.0000   1.0000
     1.0000   1.0001   1.0406   1.0406   1.0406   1.0444   1.0444   1.0444
     1.0491   1.0491   1.0491   1.0810   1.0810   1.0810   1.0829   1.0829
     1.0829   1.0790   1.0790   1.0790   1.0681   1.0681   1.0681   1.0445
     1.0359   1.0359   1.0359   1.0235   1.0235   1.0235   1.0229   1.0229
     1.0229   1.0217   1.0217   1.0217   1.0105   1.0105   1.0105   1.0043
     1.0043   1.0043   1.0028   1.0028   1.0028   0.9853   0.9832   0.9832
     0.9700   0.9700   0.9700   0.9572   0.9572   0.9572   0.9535   0.9535
     0.9535   0.9259   0.9259   0.9067   0.9067   0.9067   0.8143   0.8143
     0.8143   0.7960   0.7960   0.7960   0.7656   0.7656   0.7460   0.5891
     0.5891   0.4663   0.0926   0.0926   0.0926   0.0530   0.0530   0.0530
     0.0367   0.0367   0.0367   0.0058   0.0020   0.0020   0.0020   0.0009
     0.0006   0.0006   0.0002   0.0002   0.0002   0.0001   0.0001   0.0001
     0.0001   0.0001   0.0001   0.0000   0.0000   0.0000   0.0000   0.0000
     0.0000   0.0000   0.0000

          k = 0.0000 0.0000 0.2500 ( 55755 PWs)   bands (ev):

   -18.1741 -18.1738 -18.1737 -18.1737 -18.1734 -18.1734 -18.1733 -18.1730
   -13.4577 -13.4558 -13.4513 -13.4503 -13.4499 -13.4486 -13.4372 -13.4352
   -13.3825 -13.3820 -13.3819 -13.3819 -13.3819 -13.3810 -13.3810 -13.3810
   -13.3810 -13.3810 -13.3810 -13.3810 -13.3769 -13.3769 -13.3769 -13.3350
   -13.3346 -13.3346 -13.3154 -13.3154 -13.3154 -13.2872 -13.2872 -13.2871
   -13.2871 -13.2871 -13.2871  -9.2580  -9.1061  -9.0514  -8.9516  -8.8735
    -8.7887  -8.7389  -8.7389  -8.7363  -8.7363  -8.7233  -8.7199  -8.7199
    -8.6544  -8.6246  -8.5070  -8.4629  -8.4604  -8.4439  -8.4439  -8.4351
    -8.4129  -8.3116  -8.2974  -5.2936  -4.9837  -4.9837  -4.9822  -4.9707
    -4.9707  -4.9696  -4.9662  -4.9662  -4.9654  -4.9622  -4.9622  -4.9610
    -4.9595  -4.9579  -4.9578  -4.9578  -4.9578  -4.9568  -4.9568  -4.9554
    -4.9554  -4.9543  -4.9487  -4.9441  -4.8603  -4.7300  -4.5132  -4.2836
    -4.1540  -3.7870  -0.5424  -0.5424  -0.4681  -0.4681  -0.3798  -0.3798
    -0.2888  -0.2074  -0.1146   0.4105   0.4144   0.4144   0.7315   0.7555
     0.7555   0.8642   0.9266   0.9266   0.9338   1.0223   1.0223   1.1136
     1.2272   1.2272   1.2450   1.4052   1.4052   1.4128   1.4659   1.4659
     1.4892   1.4978   1.5369   1.5369   1.5539   1.5826   1.5907   1.6191
     1.6191   1.6212   1.7004   1.7047   1.7292   1.7292   1.7501   1.7535
     1.7535   1.7732   1.7732   1.8080   1.8149   1.8149   1.8366   1.8442
     1.8723   1.8723   1.9328   1.9968   1.9968   2.0233   2.2392   2.2392
     2.2849   2.2989   2.2989   2.3225   2.3764   2.4380   2.5240   2.7764
     2.8724   3.0676   4.8076   4.8076   5.1101   5.1101   5.3179   5.3179
     5.4347   5.7341   5.9179   6.4467   6.7516   6.7516   6.7711   7.2198
     7.3134   7.3569   7.4479   7.7293   7.7532   7.8158   7.8158   7.8700
     7.9072   7.9072   7.9967   8.0290   8.0724   8.1328   8.1408   8.1920
     8.2141   8.2272   8.2272

     occupation numbers 
     1.0000   1.0000   1.0000   1.0000   1.0000   1.0000   1.0000   1.0000
     1.0000   1.0000   1.0000   1.0000   1.0000   1.0000   1.0000   1.0000
     1.0000   1.0000   1.0000   1.0000   1.0000   1.0000   1.0000   1.0000
     1.0000   1.0000   1.0000   1.0000   1.0000   1.0000   1.0000   1.0000
     1.0000   1.0000   1.0000   1.0000   1.0000   1.0000   1.0000   1.0000
     1.0000   1.0000   1.0000   1.0000   1.0000   1.0000   1.0000   1.0000
     1.0000   1.0000   1.0000   1.0000   1.0000   1.0000   1.0000   1.0000
     1.0000   1.0000   1.0000   1.0000   1.0000   1.0000   1.0000   1.0000
     1.0000   1.0000   1.0000   1.0000   1.0000   1.0000   1.0000   1.0000
     1.0000   1.0000   1.0000   1.0000   1.0000   1.0000   1.0000   1.0000
     1.0000   1.0000   1.0000   1.0000   1.0000   1.0000   1.0000   1.0000
     1.0000   1.0000   1.0000   1.0000   1.0000   1.0000   1.0000   1.0000
     1.0000   1.0001   1.0411   1.0411   1.0444   1.0444   1.0484   1.0484
     1.0527   1.0565   1.0609   1.0806   1.0807   1.0807   1.0827   1.0823
     1.0823   1.0797   1.0774   1.0774   1.0771   1.0725   1.0725   1.0662
     1.0562   1.0562   1.0543   1.0349   1.0349   1.0338   1.0260   1.0260
     1.0224   1.0211   1.0146   1.0146   1.0117   1.0067   1.0052   1.0000
     1.0000   0.9996   0.9839   0.9830   0.9779   0.9779   0.9734   0.9726
     0.9726   0.9682   0.9682   0.9603   0.9588   0.9588   0.9536   0.9518
     0.9450   0.9450   0.9298   0.9128   0.9128   0.9055   0.8412   0.8412
     0.8265   0.8219   0.8219   0.8142   0.7961   0.7750   0.7448   0.6522
     0.6161   0.5427   0.0848   0.0848   0.0534   0.0534   0.0379   0.0379
     0.0309   0.0179   0.0125   0.0041   0.0020   0.0020   0.0019   0.0006
     0.0005   0.0004   0.0003   0.0002   0.0001   0.0001   0.0001   0.0001
     0.0001   0.0001   0.0001   0.0001   0.0001   0.0000   0.0000   0.0000
     0.0000   0.0000   0.0000

          k = 0.0000 0.0000-0.5000 ( 55752 PWs)   bands (ev):

   -18.1741 -18.1739 -18.1737 -18.1737 -18.1735 -18.1735 -18.1733 -18.1731
   -13.4577 -13.4530 -13.4508 -13.4504 -13.4494 -13.4488 -13.4395 -13.4351
   -13.3830 -13.3820 -13.3819 -13.3819 -13.3819 -13.3815 -13.3810 -13.3810
   -13.3810 -13.3810 -13.3810 -13.3810 -13.3769 -13.3769 -13.3769 -13.3351
   -13.3347 -13.3347 -13.3154 -13.3153 -13.3153 -13.2872 -13.2871 -13.2871
   -13.2871 -13.2871 -13.2871  -9.2216  -9.1575  -9.0043  -8.9567  -8.9532
    -8.8118  -8.7376  -8.7376  -8.7374  -8.7374  -8.7200  -8.7200  -8.7184
    -8.5516  -8.5401  -8.5315  -8.5139  -8.5088  -8.4439  -8.4439  -8.4352
    -8.3583  -8.3552  -8.3000  -5.1742  -4.9978  -4.9783  -4.9783  -4.9758
    -4.9758  -4.9755  -4.9684  -4.9658  -4.9644  -4.9644  -4.9637  -4.9637
    -4.9613  -4.9602  -4.9599  -4.9597  -4.9579  -4.9577  -4.9577  -4.9563
    -4.9560  -4.9560  -4.9533  -4.9503  -4.9283  -4.5735  -4.5084  -4.4751
    -4.1028  -3.9199  -0.5287  -0.5287  -0.4682  -0.4682  -0.3951  -0.3951
     0.2126   0.3490   0.4037   0.4037   0.4230   0.4341   0.4430   0.5520
     0.6465   0.7648   0.8298   0.8658   0.8658   0.8866   0.8866   1.0218
     1.0218   1.0701   1.0701   1.3724   1.3724   1.4443   1.4534   1.4534
     1.4981   1.5024   1.5210   1.5448   1.5855   1.6395   1.6395   1.6480
     1.6480   1.6569   1.6834   1.6991   1.6991   1.7021   1.7183   1.7183
     1.7398   1.7824   1.8054   1.8282   1.8282   1.8353   1.9208   1.9718
     1.9718   2.0100   2.0100   2.0333   2.0333   2.0563   2.0795   2.0795
     2.1213   2.1266   2.1266   2.3228   2.3759   2.4069   2.5672   2.6910
     2.7591   2.9999   4.8874   4.8874   5.0830   5.0830   5.3033   5.3033
     6.4782   6.6658   6.7526   6.7526   6.8547   6.8646   6.8830   6.9213
     6.9671   7.1666   7.2379   7.5277   7.5413   7.5757   7.6118   7.6777
     7.7400   7.8897   7.9121   8.0712   8.0713   8.0906   8.0907   8.1733
     8.1919   8.1919   8.2012

     occupation numbers 
     1.0000   1.0000   1.0000   1.0000   1.0000   1.0000   1.0000   1.0000
     1.0000   1.0000   1.0000   1.0000   1.0000   1.0000   1.0000   1.0000
     1.0000   1.0000   1.0000   1.0000   1.0000   1.0000   1.0000   1.0000
     1.0000   1.0000   1.0000   1.0000   1.0000   1.0000   1.0000   1.0000
     1.0000   1.0000   1.0000   1.0000   1.0000   1.0000   1.0000   1.0000
     1.0000   1.0000   1.0000   1.0000   1.0000   1.0000   1.0000   1.0000
     1.0000   1.0000   1.0000   1.0000   1.0000   1.0000   1.0000   1.0000
     1.0000   1.0000   1.0000   1.0000   1.0000   1.0000   1.0000   1.0000
     1.0000   1.0000   1.0000   1.0000   1.0000   1.0000   1.0000   1.0000
     1.0000   1.0000   1.0000   1.0000   1.0000   1.0000   1.0000   1.0000
     1.0000   1.0000   1.0000   1.0000   1.0000   1.0000   1.0000   1.0000
     1.0000   1.0000   1.0000   1.0000   1.0000   1.0000   1.0000   1.0000
     1.0000   1.0000   1.0417   1.0417   1.0444   1.0444   1.0477   1.0477
     1.0747   1.0791   1.0805   1.0805   1.0809   1.0812   1.0813   1.0829
     1.0833   1.0822   1.0807   1.0797   1.0797   1.0789   1.0789   1.0725
     1.0725   1.0694   1.0694   1.0393   1.0393   1.0293   1.0279   1.0279
     1.0210   1.0203   1.0173   1.0133   1.0061   0.9961   0.9961   0.9944
     0.9944   0.9927   0.9874   0.9842   0.9842   0.9836   0.9802   0.9802
     0.9756   0.9662   0.9610   0.9556   0.9556   0.9540   0.9329   0.9195
     0.9195   0.9092   0.9092   0.9028   0.9028   0.8963   0.8896   0.8896
     0.8774   0.8758   0.8758   0.8141   0.7963   0.7857   0.7293   0.6840
     0.6587   0.5681   0.0754   0.0754   0.0557   0.0557   0.0388   0.0388
     0.0038   0.0025   0.0020   0.0020   0.0016   0.0015   0.0015   0.0013
     0.0012   0.0007   0.0006   0.0003   0.0003   0.0002   0.0002   0.0002
     0.0001   0.0001   0.0001   0.0001   0.0001   0.0001   0.0001   0.0000
     0.0000   0.0000   0.0000

          k = 0.0000 0.2500 0.2500 ( 55708 PWs)   bands (ev):

   -18.1741 -18.1738 -18.1738 -18.1737 -18.1734 -18.1734 -18.1734 -18.1731
   -13.4567 -13.4545 -13.4508 -13.4501 -13.4496 -13.4485 -13.4383 -13.4360
   -13.3827 -13.3822 -13.3819 -13.3819 -13.3819 -13.3815 -13.3810 -13.3810
   -13.3810 -13.3810 -13.3810 -13.3810 -13.3769 -13.3769 -13.3769 -13.3350
   -13.3347 -13.3347 -13.3153 -13.3153 -13.3153 -13.2871 -13.2871 -13.2871
   -13.2871 -13.2871 -13.2871  -9.2375  -9.1010  -9.0667  -8.9673  -8.9092
    -8.8407  -8.7894  -8.7385  -8.7366  -8.7200  -8.6880  -8.6768  -8.6556
    -8.6383  -8.6085  -8.5199  -8.4813  -8.4690  -8.4535  -8.4439  -8.4210
    -8.4053  -8.3198  -8.3079  -5.2235  -4.9831  -4.9805  -4.9776  -4.9729
    -4.9720  -4.9714  -4.9668  -4.9662  -4.9633  -4.9633  -4.9632  -4.9610
    -4.9601  -4.9597  -4.9595  -4.9590  -4.9574  -4.9570  -4.9569  -4.9558
    -4.9551  -4.9533  -4.9497  -4.9429  -4.8321  -4.7390  -4.5215  -4.3225
    -4.2064  -3.8917  -0.5290  -0.4670  -0.3962  -0.3335  -0.2345  -0.2318
    -0.1838  -0.1372  -0.1122   0.3017   0.4042   0.5227   0.7696   0.7751
     0.7816   0.8792   0.9009   0.9222   0.9348   0.9616   0.9907   1.0235
     1.1401   1.1548   1.1900   1.2549   1.3090   1.3471   1.3837   1.3912
     1.4345   1.4719   1.5253   1.5303   1.5517   1.6009   1.6194   1.6252
     1.6290   1.6723   1.6927   1.7043   1.7086   1.7456   1.7467   1.7720
     1.7800   1.7840   1.7922   1.8023   1.8070   1.8517   1.8635   1.8752
     1.9094   1.9108   1.9262   1.9695   2.0208   2.0376   2.2027   2.2132
     2.2261   2.2547   2.2551   2.2956   2.3171   2.3206   2.4762   2.6502
     2.7783   2.8264   4.8697   5.1177   5.2849   5.4306   5.5220   5.7083
     5.7412   5.8976   5.9083   6.5745   6.6160   6.7505   6.9383   7.3200
     7.4216   7.4237   7.5024   7.5153   7.7232   7.7686   7.8308   7.8964
     7.8981   7.9032   7.9342   7.9540   7.9996   8.0022   8.0352   8.0592
     8.0708   8.1761   8.1776

     occupation numbers 
     1.0000   1.0000   1.0000   1.0000   1.0000   1.0000   1.0000   1.0000
     1.0000   1.0000   1.0000   1.0000   1.0000   1.0000   1.0000   1.0000
     1.0000   1.0000   1.0000   1.0000   1.0000   1.0000   1.0000   1.0000
     1.0000   1.0000   1.0000   1.0000   1.0000   1.0000   1.0000   1.0000
     1.0000   1.0000   1.0000   1.0000   1.0000   1.0000   1.0000   1.0000
     1.0000   1.0000   1.0000   1.0000   1.0000   1.0000   1.0000   1.0000
     1.0000   1.0000   1.0000   1.0000   1.0000   1.0000   1.0000   1.0000
     1.0000   1.0000   1.0000   1.0000   1.0000   1.0000   1.0000   1.0000
     1.0000   1.0000   1.0000   1.0000   1.0000   1.0000   1.0000   1.0000
     1.0000   1.0000   1.0000   1.0000   1.0000   1.0000   1.0000   1.0000
     1.0000   1.0000   1.0000   1.0000   1.0000   1.0000   1.0000   1.0000
     1.0000   1.0000   1.0000   1.0000   1.0000   1.0000   1.0000   1.0000
     1.0000   1.0000   1.0417   1.0444   1.0477   1.0506   1.0552   1.0554
     1.0576   1.0598   1.0610   1.0777   1.0805   1.0826   1.0821   1.0820
     1.0819   1.0792   1.0784   1.0776   1.0770   1.0758   1.0743   1.0724
     1.0641   1.0629   1.0598   1.0533   1.0473   1.0426   1.0378   1.0368
     1.0307   1.0251   1.0166   1.0157   1.0121   1.0033   0.9999   0.9988
     0.9981   0.9896   0.9855   0.9831   0.9822   0.9743   0.9741   0.9685
     0.9667   0.9658   0.9640   0.9617   0.9606   0.9500   0.9472   0.9443
     0.9358   0.9354   0.9315   0.9202   0.9062   0.9015   0.8526   0.8494
     0.8453   0.8362   0.8361   0.8230   0.8159   0.8148   0.7617   0.6991
     0.6515   0.6334   0.0774   0.0527   0.0400   0.0312   0.0265   0.0188
     0.0177   0.0130   0.0128   0.0031   0.0028   0.0020   0.0013   0.0005
     0.0004   0.0004   0.0003   0.0003   0.0002   0.0001   0.0001   0.0001
     0.0001   0.0001   0.0001   0.0001   0.0001   0.0001   0.0001   0.0001
     0.0001   0.0000   0.0000

          k = 0.0000 0.2500-0.5000 ( 55624 PWs)   bands (ev):

   -18.1740 -18.1738 -18.1737 -18.1736 -18.1735 -18.1734 -18.1733 -18.1731
   -13.4563 -13.4518 -13.4504 -13.4501 -13.4493 -13.4486 -13.4407 -13.4362
   -13.3831 -13.3823 -13.3820 -13.3819 -13.3818 -13.3818 -13.3810 -13.3810
   -13.3810 -13.3810 -13.3810 -13.3810 -13.3769 -13.3769 -13.3768 -13.3351
   -13.3348 -13.3348 -13.3153 -13.3153 -13.3153 -13.2871 -13.2871 -13.2871
   -13.2871 -13.2871 -13.2871  -9.1990  -9.1434  -9.0449  -8.9758  -8.9546
    -8.8580  -8.8154  -8.7375  -8.7374  -8.7201  -8.6675  -8.6657  -8.6400
    -8.5565  -8.5467  -8.5343  -8.5270  -8.5224  -8.4585  -8.4439  -8.4157
    -8.3606  -8.3568  -8.3133  -5.1008  -4.9847  -4.9797  -4.9764  -4.9727
    -4.9712  -4.9707  -4.9667  -4.9660  -4.9649  -4.9648  -4.9646  -4.9633
    -4.9609  -4.9606  -4.9600  -4.9590  -4.9587  -4.9578  -4.9571  -4.9559
    -4.9542  -4.9528  -4.9505  -4.9503  -4.9097  -4.6549  -4.4927  -4.4653
    -4.1726  -4.0352  -0.5108  -0.4666  -0.4166  -0.2751  -0.2234  -0.1447
     0.1729   0.3622   0.3795   0.3943   0.4348   0.4363   0.4773   0.5243
     0.6457   0.7957   0.8361   0.8587   0.8733   0.8920   0.8961   1.0232
     1.0333   1.0573   1.0680   1.2046   1.2625   1.2647   1.3280   1.3674
     1.4401   1.4775   1.5049   1.5052   1.5386   1.5932   1.6115   1.6263
     1.6430   1.6521   1.6909   1.6910   1.7082   1.7095   1.7398   1.7757
     1.7925   1.7929   1.8026   1.8078   1.8787   1.8966   1.9042   1.9376
     2.0042   2.0084   2.0195   2.0284   2.0561   2.0620   2.0709   2.0864
     2.1243   2.1480   2.1741   2.2568   2.2659   2.3073   2.5056   2.5306
     2.6760   2.7589   4.9564   5.1020   5.2506   5.5408   5.6888   5.8930
     6.4046   6.6944   6.7248   6.7489   6.8935   6.9482   6.9691   6.9802
     7.0125   7.1332   7.2068   7.5835   7.5909   7.6217   7.6969   7.7131
     7.7151   7.7471   7.7529   7.7847   7.9124   7.9498   7.9642   7.9944
     8.0186   8.1367   8.1437

     occupation numbers 
     1.0000   1.0000   1.0000   1.0000   1.0000   1.0000   1.0000   1.0000
     1.0000   1.0000   1.0000   1.0000   1.0000   1.0000   1.0000   1.0000
     1.0000   1.0000   1.0000   1.0000   1.0000   1.0000   1.0000   1.0000
     1.0000   1.0000   1.0000   1.0000   1.0000   1.0000   1.0000   1.0000
     1.0000   1.0000   1.0000   1.0000   1.0000   1.0000   1.0000   1.0000
     1.0000   1.0000   1.0000   1.0000   1.0000   1.0000   1.0000   1.0000
     1.0000   1.0000   1.0000   1.0000   1.0000   1.0000   1.0000   1.0000
     1.0000   1.0000   1.0000   1.0000   1.0000   1.0000   1.0000   1.0000
     1.0000   1.0000   1.0000   1.0000   1.0000   1.0000   1.0000   1.0000
     1.0000   1.0000   1.0000   1.0000   1.0000   1.0000   1.0000   1.0000
     1.0000   1.0000   1.0000   1.0000   1.0000   1.0000   1.0000   1.0000
     1.0000   1.0000   1.0000   1.0000   1.0000   1.0000   1.0000   1.0000
     1.0000   1.0000   1.0425   1.0445   1.0467   1.0533   1.0558   1.0595
     1.0732   1.0795   1.0799   1.0803   1.0812   1.0812   1.0820   1.0826
     1.0833   1.0816   1.0806   1.0799   1.0794   1.0788   1.0786   1.0724
     1.0718   1.0703   1.0695   1.0584   1.0525   1.0523   1.0450   1.0400
     1.0299   1.0243   1.0199   1.0199   1.0143   1.0048   1.0014   0.9986
     0.9954   0.9936   0.9859   0.9858   0.9823   0.9820   0.9756   0.9677
     0.9639   0.9638   0.9616   0.9604   0.9434   0.9390   0.9371   0.9285
     0.9108   0.9096   0.9066   0.9041   0.8963   0.8947   0.8921   0.8876
     0.8765   0.8694   0.8615   0.8356   0.8326   0.8192   0.7513   0.7424
     0.6896   0.6588   0.0679   0.0541   0.0424   0.0256   0.0195   0.0131
     0.0045   0.0023   0.0021   0.0020   0.0014   0.0012   0.0012   0.0012
     0.0011   0.0008   0.0006   0.0002   0.0002   0.0002   0.0002   0.0002
     0.0002   0.0001   0.0001   0.0001   0.0001   0.0001   0.0001   0.0001
     0.0001   0.0000   0.0000

          k = 0.0000-0.5000-0.5000 ( 55492 PWs)   bands (ev):

   -18.1740 -18.1738 -18.1738 -18.1736 -18.1735 -18.1734 -18.1734 -18.1732
   -13.4554 -13.4501 -13.4501 -13.4490 -13.4483 -13.4483 -13.4441 -13.4368
   -13.3834 -13.3824 -13.3824 -13.3818 -13.3818 -13.3818 -13.3810 -13.3810
   -13.3810 -13.3810 -13.3810 -13.3810 -13.3769 -13.3768 -13.3768 -13.3351
   -13.3349 -13.3349 -13.3153 -13.3153 -13.3153 -13.2871 -13.2871 -13.2871
   -13.2871 -13.2871 -13.2871  -9.1434  -9.1240  -9.1240  -9.0044  -8.9232
    -8.8766  -8.8766  -8.7374  -8.7374  -8.7201  -8.5947  -8.5946  -8.5858
    -8.5858  -8.5782  -8.5423  -8.5302  -8.5302  -8.5003  -8.4439  -8.3824
    -8.3627  -8.3627  -8.3329  -4.9895  -4.9804  -4.9800  -4.9800  -4.9726
    -4.9726  -4.9695  -4.9673  -4.9666  -4.9652  -4.9620  -4.9619  -4.9619
    -4.9609  -4.9600  -4.9600  -4.9576  -4.9576  -4.9563  -4.9563  -4.9534
    -4.9530  -4.9510  -4.9433  -4.8996  -4.8560  -4.8560  -4.5268  -4.3069
    -4.2397  -4.2397  -0.4659  -0.4650  -0.4650   0.1320   0.2216   0.2639
     0.2799   0.2799   0.3852   0.3913   0.4411   0.4411   0.4950   0.5598
     0.5598   0.6076   0.6231   0.6755   0.8401   0.8846   0.8846   0.9166
     1.0248   1.0574   1.1147   1.1147   1.1876   1.1941   1.1941   1.2960
     1.3216   1.3216   1.3768   1.4592   1.5872   1.5872   1.6057   1.6200
     1.6260   1.6260   1.6464   1.6968   1.7401   1.7401   1.7419   1.7687
     1.8106   1.8106   1.8614   1.8892   1.9011   1.9610   1.9610   1.9999
     2.0012   2.0148   2.0148   2.0283   2.0283   2.0290   2.0780   2.1113
     2.1337   2.1342   2.1742   2.1742   2.2376   2.2376   2.3850   2.4627
     2.6352   2.6352   5.1018   5.1212   5.1212   6.3032   6.7112   6.7209
     6.7209   6.7450   6.7562   6.7742   6.9112   6.9112   6.9687   7.0606
     7.0606   7.0684   7.1017   7.2162   7.3030   7.3059   7.3059   7.3777
     7.7043   7.7084   7.7084   7.8012   7.8184   7.8270   7.8270   7.9092
     7.9702   8.0016   8.0020

     occupation numbers 
     1.0000   1.0000   1.0000   1.0000   1.0000   1.0000   1.0000   1.0000
     1.0000   1.0000   1.0000   1.0000   1.0000   1.0000   1.0000   1.0000
     1.0000   1.0000   1.0000   1.0000   1.0000   1.0000   1.0000   1.0000
     1.0000   1.0000   1.0000   1.0000   1.0000   1.0000   1.0000   1.0000
     1.0000   1.0000   1.0000   1.0000   1.0000   1.0000   1.0000   1.0000
     1.0000   1.0000   1.0000   1.0000   1.0000   1.0000   1.0000   1.0000
     1.0000   1.0000   1.0000   1.0000   1.0000   1.0000   1.0000   1.0000
     1.0000   1.0000   1.0000   1.0000   1.0000   1.0000   1.0000   1.0000
     1.0000   1.0000   1.0000   1.0000   1.0000   1.0000   1.0000   1.0000
     1.0000   1.0000   1.0000   1.0000   1.0000   1.0000   1.0000   1.0000
     1.0000   1.0000   1.0000   1.0000   1.0000   1.0000   1.0000   1.0000
     1.0000   1.0000   1.0000   1.0000   1.0000   1.0000   1.0000   1.0000
     1.0000   1.0000   1.0445   1.0445   1.0445   1.0716   1.0750   1.0765
     1.0770   1.0770   1.0800   1.0802   1.0813   1.0813   1.0822   1.0830
     1.0830   1.0833   1.0833   1.0832   1.0805   1.0790   1.0790   1.0778
     1.0723   1.0703   1.0661   1.0661   1.0600   1.0594   1.0594   1.0488
     1.0457   1.0457   1.0388   1.0271   1.0058   1.0058   1.0025   0.9998
     0.9986   0.9986   0.9947   0.9847   0.9755   0.9755   0.9751   0.9693
     0.9597   0.9597   0.9477   0.9408   0.9379   0.9224   0.9224   0.9119
     0.9116   0.9079   0.9079   0.9041   0.9041   0.9039   0.8901   0.8804
     0.8737   0.8736   0.8614   0.8614   0.8417   0.8417   0.7932   0.7664
     0.7046   0.7046   0.0541   0.0524   0.0524   0.0056   0.0022   0.0022
     0.0022   0.0020   0.0020   0.0019   0.0014   0.0014   0.0012   0.0009
     0.0009   0.0009   0.0008   0.0006   0.0005   0.0005   0.0005   0.0004
     0.0002   0.0002   0.0002   0.0001   0.0001   0.0001   0.0001   0.0001
     0.0001   0.0001   0.0001

          k = 0.2500 0.2500 0.2500 ( 55704 PWs)   bands (ev):

   -18.1741 -18.1737 -18.1737 -18.1737 -18.1734 -18.1734 -18.1734 -18.1731
   -13.4545 -13.4545 -13.4504 -13.4497 -13.4497 -13.4484 -13.4382 -13.4382
   -13.3827 -13.3827 -13.3819 -13.3819 -13.3819 -13.3819 -13.3810 -13.3810
   -13.3810 -13.3810 -13.3810 -13.3810 -13.3769 -13.3769 -13.3769 -13.3351
   -13.3348 -13.3348 -13.3154 -13.3153 -13.3153 -13.2871 -13.2871 -13.2871
   -13.2871 -13.2871 -13.2871  -9.2169  -9.0806  -9.0806  -8.9947  -8.9128
    -8.9128  -8.8392  -8.6978  -8.6870  -8.6870  -8.6735  -8.6735  -8.6474
    -8.6113  -8.6113  -8.5337  -8.4873  -8.4793  -8.4793  -8.4216  -8.4216
    -8.4003  -8.3228  -8.3228  -5.1540  -4.9810  -4.9810  -4.9724  -4.9724
    -4.9721  -4.9717  -4.9675  -4.9675  -4.9644  -4.9634  -4.9634  -4.9619
    -4.9616  -4.9616  -4.9592  -4.9592  -4.9575  -4.9575  -4.9570  -4.9545
    -4.9545  -4.9537  -4.9498  -4.9416  -4.7602  -4.7602  -4.5494  -4.3162
    -4.3162  -3.9961  -0.3240  -0.3240  -0.2619  -0.1908  -0.1908  -0.1603
    -0.1413  -0.1413  -0.1322   0.2095   0.5101   0.5101   0.7856   0.7966
     0.7966   0.8738   0.8888   0.8888   0.9549   0.9549   0.9555   0.9699
     1.0879   1.0879   1.1898   1.1898   1.3256   1.3366   1.3366   1.3385
     1.3763   1.3878   1.3878   1.4337   1.5046   1.5046   1.5913   1.6040
     1.6040   1.6375   1.6375   1.7048   1.7122   1.7122   1.7668   1.8181
     1.8181   1.8252   1.8336   1.8733   1.8740   1.8740   1.9021   1.9021
     1.9279   1.9279   1.9593   2.0221   2.0221   2.0319   2.1945   2.1945
     2.2143   2.2246   2.2246   2.2734   2.2734   2.2755   2.2758   2.5310
     2.6137   2.6137   5.4764   5.4764   5.6060   5.6868   5.7520   5.7520
     5.8714   5.8714   5.8715   6.4252   6.7179   6.9317   6.9317   7.3874
     7.4860   7.4860   7.5147   7.5147   7.5242   7.7268   7.7268   7.7477
     7.8614   7.9293   7.9293   7.9477   7.9477   7.9893   7.9904   8.0067
     8.0068   8.0545   8.0969

     occupation numbers 
     1.0000   1.0000   1.0000   1.0000   1.0000   1.0000   1.0000   1.0000
     1.0000   1.0000   1.0000   1.0000   1.0000   1.0000   1.0000   1.0000
     1.0000   1.0000   1.0000   1.0000   1.0000   1.0000   1.0000   1.0000
     1.0000   1.0000   1.0000   1.0000   1.0000   1.0000   1.0000   1.0000
     1.0000   1.0000   1.0000   1.0000   1.0000   1.0000   1.0000   1.0000
     1.0000   1.0000   1.0000   1.0000   1.0000   1.0000   1.0000   1.0000
     1.0000   1.0000   1.0000   1.0000   1.0000   1.0000   1.0000   1.0000
     1.0000   1.0000   1.0000   1.0000   1.0000   1.0000   1.0000   1.0000
     1.0000   1.0000   1.0000   1.0000   1.0000   1.0000   1.0000   1.0000
     1.0000   1.0000   1.0000   1.0000   1.0000   1.0000   1.0000   1.0000
     1.0000   1.0000   1.0000   1.0000   1.0000   1.0000   1.0000   1.0000
     1.0000   1.0000   1.0000   1.0000   1.0000   1.0000   1.0000   1.0000
     1.0000   1.0000   1.0510   1.0510   1.0540   1.0573   1.0573   1.0587
     1.0596   1.0596   1.0600   1.0746   1.0825   1.0825   1.0818   1.0816
     1.0816   1.0794   1.0789   1.0789   1.0761   1.0761   1.0761   1.0754
     1.0681   1.0681   1.0598   1.0598   1.0453   1.0439   1.0439   1.0437
     1.0388   1.0373   1.0373   1.0309   1.0200   1.0200   1.0051   1.0028
     1.0028   0.9965   0.9965   0.9830   0.9815   0.9815   0.9697   0.9580
     0.9580   0.9563   0.9544   0.9448   0.9446   0.9446   0.9376   0.9376
     0.9310   0.9310   0.9229   0.9059   0.9059   0.9031   0.8552   0.8552
     0.8490   0.8458   0.8458   0.8302   0.8302   0.8295   0.8294   0.7423
     0.7124   0.7124   0.0287   0.0287   0.0227   0.0196   0.0173   0.0173
     0.0137   0.0137   0.0137   0.0043   0.0022   0.0013   0.0013   0.0004
     0.0003   0.0003   0.0003   0.0003   0.0003   0.0002   0.0002   0.0001
     0.0001   0.0001   0.0001   0.0001   0.0001   0.0001   0.0001   0.0001
     0.0001   0.0001   0.0001

          k = 0.2500 0.2500-0.5000 ( 55680 PWs)   bands (ev):

   -18.1740 -18.1738 -18.1737 -18.1737 -18.1735 -18.1735 -18.1733 -18.1732
   -13.4544 -13.4512 -13.4499 -13.4497 -13.4492 -13.4485 -13.4412 -13.4381
   -13.3832 -13.3827 -13.3824 -13.3819 -13.3819 -13.3819 -13.3810 -13.3810
   -13.3810 -13.3810 -13.3810 -13.3810 -13.3769 -13.3769 -13.3769 -13.3351
   -13.3349 -13.3349 -13.3153 -13.3153 -13.3153 -13.2871 -13.2871 -13.2871
   -13.2871 -13.2871 -13.2871  -9.1769  -9.1277  -9.0409  -8.9989  -8.9825
    -8.9111  -8.8769  -8.6901  -8.6851  -8.6692  -8.6614  -8.6565  -8.6262
    -8.5591  -8.5478  -8.5439  -8.5422  -8.5334  -8.4803  -8.4220  -8.4128
    -8.3639  -8.3590  -8.3257  -5.0327  -4.9806  -4.9764  -4.9758  -4.9718
    -4.9706  -4.9689  -4.9681  -4.9678  -4.9654  -4.9652  -4.9649  -4.9628
    -4.9621  -4.9609  -4.9602  -4.9592  -4.9590  -4.9553  -4.9550  -4.9548
    -4.9535  -4.9534  -4.9483  -4.9435  -4.8647  -4.6114  -4.5476  -4.5012
    -4.2579  -4.1476  -0.3083  -0.2428  -0.2110  -0.1996  -0.1721  -0.1639
     0.1150   0.3830   0.3876   0.4064   0.4282   0.4515   0.4903   0.5009
     0.6279   0.8026   0.8388   0.8446   0.8552   0.8737   0.9479   0.9800
     1.0550   1.0702   1.0926   1.1928   1.2166   1.2438   1.3000   1.3259
     1.3670   1.3791   1.4324   1.4373   1.4635   1.4724   1.5074   1.5278
     1.5442   1.5712   1.5972   1.6894   1.6997   1.7435   1.7817   1.8376
     1.8488   1.8734   1.8875   1.8953   1.8967   1.9186   1.9541   1.9916
     2.0100   2.0135   2.0209   2.0306   2.0427   2.0620   2.0701   2.0930
     2.1107   2.1499   2.1702   2.1834   2.2151   2.2675   2.3117   2.4164
     2.5390   2.5483   5.5430   5.6398   5.6889   5.7228   5.8412   5.8452
     6.2618   6.7134   6.7245   6.8934   6.9232   6.9387   6.9647   7.0284
     7.0854   7.1015   7.1705   7.5770   7.5907   7.5972   7.6104   7.6464
     7.6614   7.7068   7.7358   7.7442   7.7555   7.8882   7.9117   7.9321
     7.9737   7.9821   8.1548

     occupation numbers 
     1.0000   1.0000   1.0000   1.0000   1.0000   1.0000   1.0000   1.0000
     1.0000   1.0000   1.0000   1.0000   1.0000   1.0000   1.0000   1.0000
     1.0000   1.0000   1.0000   1.0000   1.0000   1.0000   1.0000   1.0000
     1.0000   1.0000   1.0000   1.0000   1.0000   1.0000   1.0000   1.0000
     1.0000   1.0000   1.0000   1.0000   1.0000   1.0000   1.0000   1.0000
     1.0000   1.0000   1.0000   1.0000   1.0000   1.0000   1.0000   1.0000
     1.0000   1.0000   1.0000   1.0000   1.0000   1.0000   1.0000   1.0000
     1.0000   1.0000   1.0000   1.0000   1.0000   1.0000   1.0000   1.0000
     1.0000   1.0000   1.0000   1.0000   1.0000   1.0000   1.0000   1.0000
     1.0000   1.0000   1.0000   1.0000   1.0000   1.0000   1.0000   1.0000
     1.0000   1.0000   1.0000   1.0000   1.0000   1.0000   1.0000   1.0000
     1.0000   1.0000   1.0000   1.0000   1.0000   1.0000   1.0000   1.0000
     1.0000   1.0000   1.0518   1.0549   1.0564   1.0569   1.0582   1.0586
     1.0710   1.0800   1.0801   1.0805   1.0810   1.0815   1.0822   1.0823
     1.0833   1.0814   1.0805   1.0803   1.0800   1.0794   1.0764   1.0748
[...]
     atom   32 type  2   force =    -0.30719219    0.00000000    0.00000000
     atom   33 type  2   force =     0.30719219   -0.00000000   -0.00000000
     atom   34 type  2   force =     0.00000000    0.00521419   -0.00000000
     atom   35 type  2   force =    -0.00000000   -0.00521419    0.00000000
     atom   36 type  2   force =     0.00521419    0.00000000    0.00000000
     atom   37 type  2   force =    -0.00521419   -0.00000000    0.00000000
     atom   38 type  2   force =     0.00000000    0.00000000   -0.00521419
     atom   39 type  2   force =     0.00000000   -0.00000000    0.00521419
     The local contribution  to forces
     atom    1 type  1   force =     0.54566094    0.54566094    0.54566094
     atom    2 type  1   force =    -0.54566094    0.54566094   -0.54566094
     atom    3 type  1   force =     0.54566094   -0.54566094   -0.54566094
     atom    4 type  1   force =    -0.54566094   -0.54566094    0.54566094
     atom    5 type  1   force =     0.54566094    0.54566094   -0.54566094
     atom    6 type  1   force =     0.54566094   -0.54566094    0.54566094
     atom    7 type  1   force =    -0.54566094    0.54566094    0.54566094
     atom    8 type  1   force =    -0.54566094   -0.54566094   -0.54566094
     atom    9 type  3   force =     0.00000000    0.00000000    0.00000000
     atom   10 type  3   force =     0.00000000    0.00000000    0.00000000
     atom   11 type  3   force =     0.00000000    0.00000000    0.00000000
     atom   12 type  3   force =     0.00000000    0.00000000    0.00000000
     atom   13 type  3   force =     0.00000000    0.00000000    0.00000000
     atom   14 type  3   force =     0.00000000    0.00000000    0.00000000
     atom   15 type  3   force =     0.00000000    0.00000000    0.00000000
     atom   16 type  2   force =    -4.65627703    0.00000000    0.00000000
     atom   17 type  2   force =     4.65627703    0.00000000    0.00000000
     atom   18 type  2   force =     0.00000000   -0.00000000    4.65627703
     atom   19 type  2   force =    -0.00000000    0.00000000   -4.65627703
     atom   20 type  2   force =     0.00000000   -4.65627703    0.00000000
     atom   21 type  2   force =     0.00000000    4.65627703    0.00000000
     atom   22 type  2   force =     0.00000000    0.00000000    0.30664563
     atom   23 type  2   force =     0.00000000    0.00000000   -0.30664563
     atom   24 type  2   force =     0.30664563    0.00000000    0.00000000
     atom   25 type  2   force =    -0.30664563    0.00000000    0.00000000
     atom   26 type  2   force =     0.00000000    0.30664563    0.00000000
     atom   27 type  2   force =    -0.00000000   -0.30664563    0.00000000
     atom   28 type  2   force =     0.00000000    0.00000000   -0.30664563
     atom   29 type  2   force =     0.00000000    0.00000000    0.30664563
     atom   30 type  2   force =     0.00000000    0.30664563    0.00000000
     atom   31 type  2   force =     0.00000000   -0.30664563    0.00000000
     atom   32 type  2   force =     0.30664563   -0.00000000    0.00000000
     atom   33 type  2   force =    -0.30664563    0.00000000    0.00000000
     atom   34 type  2   force =     0.00000000   -0.00599742    0.00000000
     atom   35 type  2   force =     0.00000000    0.00599742    0.00000000
     atom   36 type  2   force =    -0.00599742   -0.00000000    0.00000000
     atom   37 type  2   force =     0.00599742    0.00000000    0.00000000
     atom   38 type  2   force =     0.00000000    0.00000000    0.00599742
     atom   39 type  2   force =     0.00000000    0.00000000   -0.00599742
     The core correction contribution to forces
     atom    1 type  1   force =    -0.00042037   -0.00042037   -0.00042037
     atom    2 type  1   force =     0.00042037   -0.00042037    0.00042037
     atom    3 type  1   force =    -0.00042037    0.00042037    0.00042037
     atom    4 type  1   force =     0.00042037    0.00042037   -0.00042037
     atom    5 type  1   force =    -0.00042037   -0.00042037    0.00042037
     atom    6 type  1   force =    -0.00042037    0.00042037   -0.00042037
     atom    7 type  1   force =     0.00042037   -0.00042037   -0.00042037
     atom    8 type  1   force =     0.00042037    0.00042037    0.00042037
     atom    9 type  3   force =    -0.00000000   -0.00000000   -0.00000000
     atom   10 type  3   force =    -0.00000000   -0.00000000   -0.00000000
     atom   11 type  3   force =    -0.00000000   -0.00000000   -0.00000000
     atom   12 type  3   force =    -0.00000000    0.00000000   -0.00000000
     atom   13 type  3   force =     0.00000000   -0.00000000   -0.00000000
     atom   14 type  3   force =    -0.00000000   -0.00000000    0.00000000
     atom   15 type  3   force =     0.00000000    0.00000000    0.00000000
     atom   16 type  2   force =     0.00840055    0.00000000    0.00000000
     atom   17 type  2   force =    -0.00840055    0.00000000    0.00000000
     atom   18 type  2   force =     0.00000000    0.00000000   -0.00840055
     atom   19 type  2   force =     0.00000000    0.00000000    0.00840055
     atom   20 type  2   force =     0.00000000    0.00840055    0.00000000
     atom   21 type  2   force =     0.00000000   -0.00840055    0.00000000
     atom   22 type  2   force =    -0.00000000    0.00000000   -0.00003270
     atom   23 type  2   force =     0.00000000    0.00000000    0.00003270
     atom   24 type  2   force =    -0.00003270   -0.00000000    0.00000000
     atom   25 type  2   force =     0.00003270    0.00000000    0.00000000
     atom   26 type  2   force =     0.00000000   -0.00003270   -0.00000000
     atom   27 type  2   force =     0.00000000    0.00003270    0.00000000
     atom   28 type  2   force =     0.00000000    0.00000000    0.00003270
     atom   29 type  2   force =     0.00000000   -0.00000000   -0.00003270
     atom   30 type  2   force =    -0.00000000   -0.00003270    0.00000000
     atom   31 type  2   force =     0.00000000    0.00003270    0.00000000
     atom   32 type  2   force =    -0.00003270    0.00000000   -0.00000000
     atom   33 type  2   force =     0.00003270    0.00000000    0.00000000
     atom   34 type  2   force =    -0.00000000   -0.00005789   -0.00000000
     atom   35 type  2   force =     0.00000000    0.00005789   -0.00000000
     atom   36 type  2   force =    -0.00005789   -0.00000000   -0.00000000
     atom   37 type  2   force =     0.00005789    0.00000000   -0.00000000
     atom   38 type  2   force =    -0.00000000   -0.00000000    0.00005789
     atom   39 type  2   force =    -0.00000000   -0.00000000   -0.00005789
     The Hubbard contrib.    to forces
     atom    1 type  1   force =     0.00000000    0.00000000    0.00000000
     atom    2 type  1   force =     0.00000000    0.00000000    0.00000000
     atom    3 type  1   force =     0.00000000    0.00000000    0.00000000
     atom    4 type  1   force =     0.00000000    0.00000000    0.00000000
     atom    5 type  1   force =     0.00000000    0.00000000    0.00000000
     atom    6 type  1   force =     0.00000000    0.00000000    0.00000000
     atom    7 type  1   force =     0.00000000    0.00000000    0.00000000
     atom    8 type  1   force =     0.00000000    0.00000000    0.00000000
     atom    9 type  3   force =     0.00000000    0.00000000    0.00000000
     atom   10 type  3   force =     0.00000000    0.00000000    0.00000000
     atom   11 type  3   force =     0.00000000    0.00000000    0.00000000
     atom   12 type  3   force =     0.00000000    0.00000000    0.00000000
     atom   13 type  3   force =     0.00000000    0.00000000    0.00000000
     atom   14 type  3   force =     0.00000000    0.00000000    0.00000000
     atom   15 type  3   force =     0.00000000    0.00000000    0.00000000
     atom   16 type  2   force =     0.00000000    0.00000000    0.00000000
     atom   17 type  2   force =     0.00000000    0.00000000    0.00000000
     atom   18 type  2   force =     0.00000000    0.00000000    0.00000000
     atom   19 type  2   force =     0.00000000    0.00000000    0.00000000
     atom   20 type  2   force =     0.00000000    0.00000000    0.00000000
     atom   21 type  2   force =     0.00000000    0.00000000    0.00000000
     atom   22 type  2   force =     0.00000000    0.00000000    0.00000000
     atom   23 type  2   force =     0.00000000    0.00000000    0.00000000
     atom   24 type  2   force =     0.00000000    0.00000000    0.00000000
     atom   25 type  2   force =     0.00000000    0.00000000    0.00000000
     atom   26 type  2   force =     0.00000000    0.00000000    0.00000000
     atom   27 type  2   force =     0.00000000    0.00000000    0.00000000
     atom   28 type  2   force =     0.00000000    0.00000000    0.00000000
     atom   29 type  2   force =     0.00000000    0.00000000    0.00000000
     atom   30 type  2   force =     0.00000000    0.00000000    0.00000000
     atom   31 type  2   force =     0.00000000    0.00000000    0.00000000
     atom   32 type  2   force =     0.00000000    0.00000000    0.00000000
     atom   33 type  2   force =     0.00000000    0.00000000    0.00000000
     atom   34 type  2   force =     0.00000000    0.00000000    0.00000000
     atom   35 type  2   force =     0.00000000    0.00000000    0.00000000
     atom   36 type  2   force =     0.00000000    0.00000000    0.00000000
     atom   37 type  2   force =     0.00000000    0.00000000    0.00000000
     atom   38 type  2   force =     0.00000000    0.00000000    0.00000000
     atom   39 type  2   force =     0.00000000    0.00000000    0.00000000
     The SCF correction term to forces
     atom    1 type  1   force =    -0.00000360   -0.00000360   -0.00000360
     atom    2 type  1   force =     0.00000360   -0.00000360    0.00000360
     atom    3 type  1   force =    -0.00000360    0.00000360    0.00000360
     atom    4 type  1   force =     0.00000360    0.00000360   -0.00000360
     atom    5 type  1   force =    -0.00000360   -0.00000360    0.00000360
     atom    6 type  1   force =    -0.00000360    0.00000360   -0.00000360
     atom    7 type  1   force =     0.00000360   -0.00000360   -0.00000360
     atom    8 type  1   force =     0.00000360    0.00000360    0.00000360
     atom    9 type  3   force =    -0.00000000    0.00000000    0.00000000
     atom   10 type  3   force =    -0.00000000   -0.00000000   -0.00000000
     atom   11 type  3   force =    -0.00000000    0.00000000    0.00000000
     atom   12 type  3   force =     0.00000000   -0.00000000   -0.00000000
     atom   13 type  3   force =     0.00000000    0.00000000   -0.00000000
     atom   14 type  3   force =    -0.00000000    0.00000000    0.00000000
     atom   15 type  3   force =     0.00000000    0.00000000   -0.00000000
     atom   16 type  2   force =     0.00000319   -0.00000000   -0.00000000
     atom   17 type  2   force =    -0.00000319   -0.00000000   -0.00000000
     atom   18 type  2   force =    -0.00000000   -0.00000000   -0.00000319
     atom   19 type  2   force =    -0.00000000    0.00000000    0.00000319
     atom   20 type  2   force =     0.00000000    0.00000319   -0.00000000
     atom   21 type  2   force =    -0.00000000   -0.00000319   -0.00000000
     atom   22 type  2   force =    -0.00000000   -0.00000000   -0.00000175
     atom   23 type  2   force =    -0.00000000   -0.00000000    0.00000175
     atom   24 type  2   force =    -0.00000175   -0.00000000   -0.00000000
     atom   25 type  2   force =     0.00000175   -0.00000000   -0.00000000
     atom   26 type  2   force =    -0.00000000   -0.00000175    0.00000000
     atom   27 type  2   force =     0.00000000    0.00000175    0.00000000
     atom   28 type  2   force =     0.00000000    0.00000000    0.00000175
     atom   29 type  2   force =     0.00000000   -0.00000000   -0.00000175
     atom   30 type  2   force =    -0.00000000   -0.00000175    0.00000000
     atom   31 type  2   force =    -0.00000000    0.00000175    0.00000000
     atom   32 type  2   force =    -0.00000175    0.00000000    0.00000000
     atom   33 type  2   force =     0.00000175    0.00000000    0.00000000
     atom   34 type  2   force =     0.00000000    0.00000369    0.00000000
     atom   35 type  2   force =     0.00000000   -0.00000369    0.00000000
     atom   36 type  2   force =     0.00000369    0.00000000    0.00000000
     atom   37 type  2   force =    -0.00000369    0.00000000    0.00000000
     atom   38 type  2   force =     0.00000000   -0.00000000   -0.00000369
     atom   39 type  2   force =     0.00000000    0.00000000    0.00000369

     Total force =     0.000289     Total SCF correction =     0.000022


     Computing stress (Cartesian axis) and pressure

          total   stress  (Ry/bohr**3)                   (kbar)     P=       -0.15
  -0.00000100   0.00000000   0.00000000           -0.15        0.00        0.00
   0.00000000  -0.00000100   0.00000000            0.00       -0.15        0.00
   0.00000000   0.00000000  -0.00000100            0.00        0.00       -0.15

     kinetic stress (kbar)   3482.12      0.00      0.00
                                0.00   3482.12      0.00
                                0.00      0.00   3482.12

     local   stress (kbar)   -272.88      0.00     -0.00
                                0.00   -272.88     -0.00
                               -0.00     -0.00   -272.88

     nonloc. stress (kbar)    947.76      0.00      0.00
                                0.00    947.76      0.00
                                0.00      0.00    947.76

     hartree stress (kbar)   1881.34      0.00      0.00
                                0.00   1881.34     -0.00
                                0.00     -0.00   1881.34

     exc-cor stress (kbar)  12688.19     -0.00     -0.00
                               -0.00  12688.19     -0.00
                               -0.00     -0.00  12688.19

     corecor stress (kbar) -14317.59      0.00      0.00
                                0.00 -14317.59      0.00
                                0.00      0.00 -14317.59

     ewald   stress (kbar)  -4409.10     -0.00     -0.00
                               -0.00  -4409.10     -0.00
                               -0.00     -0.00  -4409.10

     hubbard stress (kbar)      0.00      0.00      0.00
                                0.00      0.00      0.00
                                0.00      0.00      0.00

     DFT-D   stress (kbar)      0.00      0.00      0.00
                                0.00      0.00      0.00
                                0.00      0.00      0.00

     XDM     stress (kbar)      0.00      0.00      0.00
                                0.00      0.00      0.00
                                0.00      0.00      0.00

     dft-nl  stress (kbar)      0.00      0.00      0.00
                                0.00      0.00      0.00
                                0.00      0.00      0.00

     TS-vdW  stress (kbar)      0.00      0.00      0.00
                                0.00      0.00      0.00
                                0.00      0.00      0.00

     MDB     stress (kbar)      0.00      0.00      0.00
                                0.00      0.00      0.00
                                0.00      0.00      0.00

     3D-RISM stress (kbar)      0.00      0.00      0.00
                                0.00      0.00      0.00
                                0.00      0.00      0.00


     Writing all to output data dir ../out/CsPbI3_Pb_vac.save/ :
     XML data file, charge density, pseudopotentials, collected wavefunctions
 
     init_run     :     34.06s CPU     34.38s WALL (       1 calls)
     electrons    :   1550.12s CPU   1550.23s WALL (       1 calls)
     forces       :     22.38s CPU     22.39s WALL (       1 calls)
     stress       :     72.26s CPU     72.25s WALL (       1 calls)

     Called by init_run:
     wfcinit      :     29.89s CPU     30.06s WALL (       1 calls)
     wfcinit:atom :      1.35s CPU      1.35s WALL (      10 calls)
     wfcinit:wfcr :     27.98s CPU     28.07s WALL (      10 calls)
     potinit      :      1.60s CPU      1.64s WALL (       1 calls)
     hinit0       :      0.80s CPU      0.82s WALL (       1 calls)

     Called by electrons:
     c_bands      :   1326.26s CPU   1326.27s WALL (      16 calls)
     sum_band     :    182.39s CPU    182.40s WALL (      16 calls)
     v_of_rho     :      2.22s CPU      2.25s WALL (      16 calls)
     v_h          :      0.33s CPU      0.34s WALL (      16 calls)
     v_xc         :      2.13s CPU      2.16s WALL (      18 calls)
     newd         :     22.24s CPU     22.28s WALL (      16 calls)
                                       22.27s GPU  (      16 calls)
     PAW_pot      :     17.35s CPU     17.35s WALL (      16 calls)
     mix_rho      :      1.49s CPU      1.50s WALL (      16 calls)

     Called by c_bands:
     init_us_2    :     16.23s CPU     16.23s WALL (     350 calls)
     cegterg      :   1293.68s CPU   1293.69s WALL (     160 calls)

     Called by sum_band:
     sum_band:wei :      0.04s CPU      0.04s WALL (      16 calls)
     sum_band:loo :    160.46s CPU    160.47s WALL (      16 calls)
     sum_band:buf :      5.54s CPU      5.54s WALL (     160 calls)
     sum_band:ini :      6.46s CPU      6.46s WALL (     160 calls)
     sum_band:cal :     74.04s CPU     74.03s WALL (     160 calls)
     sum_band:bec :     11.63s CPU     11.63s WALL (     160 calls)
     addusdens    :     21.13s CPU     21.13s WALL (      16 calls)
                                       21.13s GPU  (      16 calls)
     addusd:skk   :      0.66s CPU      0.73s WALL (      48 calls)
                                        0.71s GPU  (      48 calls)

     Called by *egterg:
     cdiaghg      :     27.32s CPU     27.43s WALL (    1066 calls)
                                       27.03s GPU  (    1066 calls)
     cegterg:over :    235.73s CPU    235.72s WALL (     916 calls)
     cegterg:upda :     93.93s CPU     93.92s WALL (     916 calls)
     cegterg:last :    159.14s CPU    159.12s WALL (     346 calls)
     h_psi        :    626.37s CPU    627.16s WALL (    1086 calls)
                                      626.18s GPU  (    1086 calls)
     s_psi        :     46.76s CPU     46.76s WALL (    1086 calls)
     g_psi        :      0.00s CPU      6.27s WALL (     916 calls)
                                        0.33s GPU  (     916 calls)

     Called by h_psi:
     h_psi:calbec :    195.78s CPU    196.27s WALL (    1086 calls)
                                      191.25s GPU  (    1086 calls)
     vloc_psi     :    274.59s CPU    275.24s WALL (    1086 calls)
                                      274.56s GPU  (    1086 calls)
     add_vuspsi   :     29.62s CPU    150.02s WALL (    1086 calls)
                                      149.54s GPU  (    1086 calls)

     General routines
     calbec       :    345.67s CPU    345.68s WALL (    1416 calls)
     fft          :      1.38s CPU      1.83s WALL (     232 calls)
                                        1.23s GPU  (     216 calls)
     ffts         :      0.37s CPU      0.38s WALL (      32 calls)
                                        0.05s GPU  (      16 calls)
     fftw         :    216.25s CPU    239.74s WALL (   14146 calls)
                                      190.00s GPU  (   14146 calls)
     interpolate  :      0.75s CPU      0.78s WALL (      16 calls)
 
     Parallel routines

     PAW routines
     PAW_pot      :     17.35s CPU     17.35s WALL (      16 calls)
     PAW_symme    :      0.05s CPU      0.05s WALL (      32 calls)
 
     PWSCF        :  28m 0.29s CPU  28m 2.32s WALL

 
   This run was terminated on:   2:48:31   7Mar2025            

=------------------------------------------------------------------------------=
   JOB DONE.
=------------------------------------------------------------------------------=
