
     Program PWSCF v.7.2 starts on 11Mar2025 at  0:26:14 

     This program is part of the open-source Quantum ESPRESSO suite
     for quantum simulation of materials; please cite
         "P. Giannozzi et al., J. Phys.:Condens. Matter 21 395502 (2009);
         "P. Giannozzi et al., J. Phys.:Condens. Matter 29 465901 (2017);
         "P. Giannozzi et al., J. Chem. Phys. 152 154105 (2020);
          URL http://www.quantum-espresso.org", 
     in publications or presentations arising from this work. More details at
     http://www.quantum-espresso.org/quote

     Parallel version (MPI & OpenMP), running on      32 processor cores
     Number of MPI processes:                 4
     Threads/MPI process:                     8

     MPI processes distributed on     1 nodes
     251292 MiB available memory on the printing compute node when the environment starts

     Waiting for input...
     Reading input from standard input

     Current dimensions of program PWSCF are:
     Max number of different atomic species (ntypx) = 10
     Max number of k-points (npk) =  40000
     Max angular momentum in pseudopotentials (lmaxx) =  4

     R & G space division:  proc/nbgrp/npool/nimage =       4
     Subspace diagonalization in iterative solution of the eigenvalue problem:
     a serial algorithm will be used


     Parallelization info
     --------------------
     sticks:   dense  smooth     PW     G-vecs:    dense   smooth      PW
     Min        1008     447    124                70520    20925    3078
     Max        1009     448    125                70527    20932    3085
     Sum        4033    1789    499               282093    83709   12331

     Using Slab Decomposition



     bravais-lattice index     =            4
     lattice parameter (alat)  =      18.0519  a.u.
     unit-cell volume          =    6921.4103 (a.u.)^3
     number of atoms/cell      =           27
     number of atomic types    =            3
     number of electrons       =       238.00
     number of Kohn-Sham states=          143
     kinetic-energy cutoff     =      20.0000  Ry
     charge density cutoff     =     180.0000  Ry
     scf convergence threshold =      1.0E-04
     mixing beta               =       0.4000
     number of iterations used =            8  plain     mixing
     energy convergence thresh.=      1.0E-04
     force convergence thresh. =      1.0E-03
     press convergence thresh. =      5.0E-01
     Exchange-correlation= SLA  PW   PSX  PSC
                           (   1   4  10   8   0   0   0)
     nstep                     =           50


     celldm(1)=  18.051930  celldm(2)=   0.000000  celldm(3)=   1.358604
     celldm(4)=   0.000000  celldm(5)=   0.000000  celldm(6)=   0.000000

     crystal axes: (cart. coord. in units of alat)
               a(1) = (   1.000000   0.000000   0.000000 )  
               a(2) = (  -0.500000   0.866025   0.000000 )  
               a(3) = (   0.000000   0.000000   1.358604 )  

     reciprocal axes: (cart. coord. in units 2 pi/alat)
               b(1) = (  1.000000  0.577350 -0.000000 )  
               b(2) = (  0.000000  1.154701  0.000000 )  
               b(3) = (  0.000000 -0.000000  0.736049 )  


     PseudoPot. # 1 for W  read from file:
     ./pseudo/w_pbesol_v1.2.uspp.F.UPF
     MD5 check sum: 78d6efd6ad550bd5be97e9711072ceda
     Pseudo is Ultrasoft + core correction, Zval = 14.0
     Generated by new atomic code, or converted to UPF format
     Using radial grid of  923 points,  8 beta functions with: 
                l(1) =   0
                l(2) =   0
                l(3) =   0
                l(4) =   1
                l(5) =   1
                l(6) =   2
                l(7) =   2
                l(8) =   3
     Q(r) pseudized with  6 coefficients,  rinner =    1.350   1.350   1.350
                                                       1.350   1.350   1.350
                                                       1.350

     PseudoPot. # 2 for S  read from file:
     ./pseudo/s_pbesol_v1.4.uspp.F.UPF
     MD5 check sum: 0ccfa86ec6eb59065d10aaae963ef2a7
     Pseudo is Ultrasoft + core correction, Zval =  6.0
     Generated by new atomic code, or converted to UPF format
     Using radial grid of  907 points,  6 beta functions with: 
                l(1) =   0
                l(2) =   0
                l(3) =   1
                l(4) =   1
                l(5) =   2
                l(6) =   2
     Q(r) pseudized with  8 coefficients,  rinner =    1.300   1.300   1.300
                                                       1.300   1.300

     PseudoPot. # 3 for Ni read from file:
     ./pseudo/ni_pbesol_v1.4.uspp.F.UPF
     MD5 check sum: de937c0c8ae4b350e69c02b76d8a83cb
     Pseudo is Ultrasoft + core correction, Zval = 18.0
     Generated by new atomic code, or converted to UPF format
     Using radial grid of  865 points,  6 beta functions with: 
                l(1) =   0
                l(2) =   0
                l(3) =   1
                l(4) =   1
                l(5) =   2
                l(6) =   2
     Q(r) pseudized with 10 coefficients,  rinner =    0.980   0.980   0.980
                                                       0.980   0.980

     atomic species   valence    mass     pseudopotential
        W             14.00   183.84000     W ( 1.00)
        S              6.00    32.06600     S ( 1.00)
        Ni            18.00    58.69340     Ni( 1.00)

     12 Sym. Ops. (no inversion) found ( 8 have fractional translation)



   Cartesian axes

     site n.     atom                  positions (alat units)
         1           W   tau(   1) = (   0.0000000   0.1924499   0.6793013  )
         2           W   tau(   2) = (  -0.1666666   0.4811250   0.6793013  )
         3           W   tau(   3) = (  -0.3333333   0.7698001   0.6793013  )
         4           W   tau(   4) = (   0.3333333   0.1924499   0.6793013  )
         5           Ni  tau(   5) = (   0.1666666   0.4811250   0.6793013  )
         6           W   tau(   6) = (   0.0000000   0.7698001   0.6793013  )
         7           W   tau(   7) = (   0.6666666   0.1924499   0.6793013  )
         8           W   tau(   8) = (   0.4999999   0.4811250   0.6793013  )
         9           W   tau(   9) = (   0.3333333   0.7698001   0.6793013  )
        10           S   tau(  10) = (   0.1666665   0.0962249   0.5159973  )
        11           S   tau(  11) = (  -0.0000002   0.3849000   0.5159973  )
        12           S   tau(  12) = (  -0.1666668   0.6735751   0.5159973  )
        13           S   tau(  13) = (   0.4999998   0.0962249   0.5159973  )
        14           S   tau(  14) = (   0.3333331   0.3849000   0.5159973  )
        15           S   tau(  15) = (   0.1666665   0.6735751   0.5159973  )
        16           S   tau(  16) = (   0.8333331   0.0962249   0.5159973  )
        17           S   tau(  17) = (   0.6666664   0.3849000   0.5159973  )
        18           S   tau(  18) = (   0.4999998   0.6735751   0.5159973  )
        19           S   tau(  19) = (   0.1666665   0.0962249   0.8425986  )
        20           S   tau(  20) = (  -0.0000002   0.3849000   0.8425986  )
        21           S   tau(  21) = (  -0.1666668   0.6735751   0.8425986  )
        22           S   tau(  22) = (   0.4999998   0.0962249   0.8425986  )
        23           S   tau(  23) = (   0.3333331   0.3849000   0.8425986  )
        24           S   tau(  24) = (   0.1666665   0.6735751   0.8425986  )
        25           S   tau(  25) = (   0.8333331   0.0962249   0.8425986  )
        26           S   tau(  26) = (   0.6666664   0.3849000   0.8425986  )
        27           S   tau(  27) = (   0.4999998   0.6735751   0.8425986  )

     number of k points=    30  Gaussian smearing, width (Ry)=  0.0100
                       cart. coord. in units 2pi/alat
        k(    1) = (   0.0000000   0.0000000   0.0000000), wk =   0.0078125
        k(    2) = (   0.0000000   0.0000000   0.1840124), wk =   0.0156250
        k(    3) = (   0.0000000   0.0000000  -0.3680247), wk =   0.0078125
        k(    4) = (   0.0000000   0.1443376   0.0000000), wk =   0.0468750
        k(    5) = (   0.0000000   0.1443376   0.1840124), wk =   0.0937500
        k(    6) = (   0.0000000   0.1443376  -0.3680247), wk =   0.0468750
        k(    7) = (   0.0000000   0.2886751   0.0000000), wk =   0.0468750
        k(    8) = (   0.0000000   0.2886751   0.1840124), wk =   0.0937500
        k(    9) = (   0.0000000   0.2886751  -0.3680247), wk =   0.0468750
        k(   10) = (   0.0000000   0.4330127   0.0000000), wk =   0.0468750
        k(   11) = (   0.0000000   0.4330127   0.1840124), wk =   0.0937500
        k(   12) = (   0.0000000   0.4330127  -0.3680247), wk =   0.0468750
        k(   13) = (   0.0000000  -0.5773503   0.0000000), wk =   0.0234375
        k(   14) = (   0.0000000  -0.5773503   0.1840124), wk =   0.0468750
        k(   15) = (   0.0000000  -0.5773503  -0.3680247), wk =   0.0234375
        k(   16) = (   0.1250000   0.2165064   0.0000000), wk =   0.0468750
        k(   17) = (   0.1250000   0.2165064   0.1840124), wk =   0.0937500
        k(   18) = (   0.1250000   0.2165064  -0.3680247), wk =   0.0468750
        k(   19) = (   0.1250000   0.3608439   0.0000000), wk =   0.0937500
        k(   20) = (   0.1250000   0.3608439   0.1840124), wk =   0.1875000
        k(   21) = (   0.1250000   0.3608439  -0.3680247), wk =   0.0937500
        k(   22) = (   0.1250000   0.5051815   0.0000000), wk =   0.0937500
        k(   23) = (   0.1250000   0.5051815   0.1840124), wk =   0.1875000
        k(   24) = (   0.1250000   0.5051815  -0.3680247), wk =   0.0937500
        k(   25) = (   0.2500000   0.4330127   0.0000000), wk =   0.0468750
        k(   26) = (   0.2500000   0.4330127   0.1840124), wk =   0.0937500
        k(   27) = (   0.2500000   0.4330127  -0.3680247), wk =   0.0468750
        k(   28) = (   0.2500000   0.5773503   0.0000000), wk =   0.0468750
        k(   29) = (   0.2500000   0.5773503   0.1840124), wk =   0.0937500
        k(   30) = (   0.2500000   0.5773503  -0.3680247), wk =   0.0468750

     Dense  grid:   282093 G-vectors     FFT dimensions: (  81,  81, 108)

     Smooth grid:    83709 G-vectors     FFT dimensions: (  54,  54,  72)

     Estimated max dynamical RAM per process >     723.01 MB

     Estimated total dynamical RAM >       2.82 GB

     Check: negative core charge=   -0.000002

     Initial potential from superposition of free atoms

     starting charge     235.1969, renormalised to     238.0000

     negative rho (up, down):  5.237E-01 0.000E+00
     Starting wfcs are  189 randomized atomic wfcs

     total cpu time spent up to now is      151.9 secs

     per-process dynamical memory:   278.9 Mb

     Self-consistent Calculation

     iteration #  1     ecut=    20.00 Ry     beta= 0.40
     Davidson diagonalization with overlap
     ethr =  1.00E-02,  avg # of iterations =  3.0

     negative rho (up, down):  5.199E-01 0.000E+00

     total cpu time spent up to now is      514.6 secs

     total energy              =   -2037.17382264 Ry
     estimated scf accuracy    <      18.04766380 Ry

     iteration #  2     ecut=    20.00 Ry     beta= 0.40
     Davidson diagonalization with overlap
     ethr =  7.58E-03,  avg # of iterations =  4.5

     negative rho (up, down):  5.504E-01 0.000E+00

     total cpu time spent up to now is      942.9 secs

     total energy              =   -2029.91658015 Ry
     estimated scf accuracy    <     170.93056593 Ry

     iteration #  3     ecut=    20.00 Ry     beta= 0.40
     Davidson diagonalization with overlap
     ethr =  7.58E-03,  avg # of iterations =  5.1

     negative rho (up, down):  5.318E-01 0.000E+00

     total cpu time spent up to now is     1393.7 secs

     total energy              =   -2044.35089109 Ry
     estimated scf accuracy    <       4.02431947 Ry

     iteration #  4     ecut=    20.00 Ry     beta= 0.40
     Davidson diagonalization with overlap
     ethr =  1.69E-03,  avg # of iterations =  2.0

     negative rho (up, down):  5.278E-01 0.000E+00

     total cpu time spent up to now is     1684.9 secs

     total energy              =   -2044.30712121 Ry
     estimated scf accuracy    <       1.77268787 Ry

     iteration #  5     ecut=    20.00 Ry     beta= 0.40
     Davidson diagonalization with overlap
     ethr =  7.45E-04,  avg # of iterations =  1.3

     negative rho (up, down):  5.297E-01 0.000E+00

     total cpu time spent up to now is     1950.5 secs

     total energy              =   -2044.36309331 Ry
     estimated scf accuracy    <       0.23701233 Ry

     iteration #  6     ecut=    20.00 Ry     beta= 0.40
     Davidson diagonalization with overlap
     ethr =  9.96E-05,  avg # of iterations =  5.8

     negative rho (up, down):  5.317E-01 0.000E+00

     total cpu time spent up to now is     2285.8 secs

     total energy              =   -2044.38549750 Ry
     estimated scf accuracy    <       0.06925571 Ry

     iteration #  7     ecut=    20.00 Ry     beta= 0.40
     Davidson diagonalization with overlap
     ethr =  2.91E-05,  avg # of iterations =  7.5

     negative rho (up, down):  5.300E-01 0.000E+00

     total cpu time spent up to now is     2607.6 secs

     total energy              =   -2044.39103440 Ry
     estimated scf accuracy    <       0.01065426 Ry

     iteration #  8     ecut=    20.00 Ry     beta= 0.40
     Davidson diagonalization with overlap
     c_bands:  1 eigenvalues not converged
     c_bands:  1 eigenvalues not converged
     c_bands:  1 eigenvalues not converged
     ethr =  4.48E-06,  avg # of iterations = 11.7

     negative rho (up, down):  5.303E-01 0.000E+00

     total cpu time spent up to now is     2997.4 secs

     total energy              =   -2044.38795524 Ry
     estimated scf accuracy    <       0.03837341 Ry

     iteration #  9     ecut=    20.00 Ry     beta= 0.40
     Davidson diagonalization with overlap
     ethr =  4.48E-06,  avg # of iterations =  3.1

     negative rho (up, down):  5.302E-01 0.000E+00

     total cpu time spent up to now is     3302.0 secs

     total energy              =   -2044.39144137 Ry
     estimated scf accuracy    <       0.02941299 Ry

     iteration # 10     ecut=    20.00 Ry     beta= 0.40
     Davidson diagonalization with overlap
     ethr =  4.48E-06,  avg # of iterations =  2.0

     negative rho (up, down):  5.303E-01 0.000E+00

     total cpu time spent up to now is     3589.7 secs

     total energy              =   -2044.39299546 Ry
     estimated scf accuracy    <       0.00040013 Ry

     iteration # 11     ecut=    20.00 Ry     beta= 0.40
     Davidson diagonalization with overlap
     ethr =  1.68E-07,  avg # of iterations =  2.8

     negative rho (up, down):  5.303E-01 0.000E+00

     total cpu time spent up to now is     3919.4 secs

     total energy              =   -2044.39278266 Ry
     estimated scf accuracy    <       0.00347136 Ry

     iteration # 12     ecut=    20.00 Ry     beta= 0.40
     Davidson diagonalization with overlap
     ethr =  1.68E-07,  avg # of iterations =  3.7

     negative rho (up, down):  5.303E-01 0.000E+00

     total cpu time spent up to now is     4232.1 secs

     total energy              =   -2044.39307812 Ry
     estimated scf accuracy    <       0.00087997 Ry

     iteration # 13     ecut=    20.00 Ry     beta= 0.40
     Davidson diagonalization with overlap
     ethr =  1.68E-07,  avg # of iterations =  2.0

     negative rho (up, down):  5.303E-01 0.000E+00

     total cpu time spent up to now is     4518.3 secs

     End of self-consistent calculation

          k = 0.0000 0.0000 0.0000 ( 10433 PWs)   bands (ev):

  -106.7783 -72.6543 -72.6467 -72.6466 -72.6466 -72.6465 -72.6398 -72.5997
   -72.5960 -65.7007 -65.5250 -65.5250 -36.7481 -36.7227 -36.7227 -36.7031
   -36.7031 -36.6853 -36.6573 -36.6573 -36.5939 -36.5938 -36.5874 -36.5622
   -36.5621 -36.5618 -36.5618 -36.5482 -36.5260 -36.5105 -36.5010 -36.5010
   -36.4947 -36.4866 -36.4753 -36.4753 -12.8352 -11.4725 -11.4690 -11.4690
   -11.2719 -11.2719 -11.1915 -11.0428 -10.7359 -10.7359 -10.7352 -10.5495
   -10.5495 -10.5179 -10.3257 -10.3257  -9.9952  -9.9952  -4.4407  -3.9826
    -3.9826  -3.9356  -3.8707  -3.8169  -3.8169  -3.6614  -3.6614  -3.5138
    -3.3315  -2.7010  -2.7005  -2.7005  -2.6098  -2.6098  -2.5901  -2.5901
    -2.5878  -2.5867  -2.5734  -2.5734  -2.4694  -2.4694  -2.2711  -1.9157
    -1.9157  -1.3906  -1.3832  -1.3008  -1.2549  -1.2549  -1.1044  -0.9706
    -0.9706  -0.9517  -0.9517  -0.4442  -0.4442  -0.1910  -0.0523  -0.0459
    -0.0459   0.0553   0.0553   0.0889   0.1708   0.1709   0.1709   0.1805
     0.1805   0.2045   0.2222   0.2222   0.4185   0.4745   0.4746   0.6163
     0.6520   0.6520   1.4710   1.4710   1.4854   2.4614   2.6887   2.6887
     2.8212   2.8212   3.6739   3.9995   4.3987   4.4169   4.4169   4.4397
     4.4466   4.4520   4.4520   4.5363   4.5363   4.8667   4.8667   4.8849
     4.8849   5.3422   5.3422   5.4443   5.4986   5.4987   5.5783

          k = 0.0000 0.0000 0.1840 ( 10409 PWs)   bands (ev):

  -106.7701 -72.6532 -72.6463 -72.6462 -72.6462 -72.6462 -72.6411 -72.5996
   -72.5960 -65.6916 -65.5000 -65.5000 -36.7457 -36.7306 -36.7306 -36.7016
   -36.7016 -36.6829 -36.6651 -36.6651 -36.5911 -36.5911 -36.5829 -36.5546
   -36.5546 -36.5543 -36.5542 -36.5440 -36.5316 -36.5192 -36.5068 -36.4937
   -36.4937 -36.4823 -36.4558 -36.4558 -12.8319 -11.4723 -11.4687 -11.4687
   -11.2717 -11.2717 -11.1906 -11.0427 -10.7340 -10.7339 -10.7332 -10.5488
   -10.5487 -10.5162 -10.3296 -10.3296  -9.9967  -9.9967  -4.4399  -3.9813
    -3.9813  -3.9341  -3.8695  -3.8246  -3.8246  -3.6586  -3.6586  -3.5148
    -3.3328  -2.7010  -2.6999  -2.6999  -2.6108  -2.6108  -2.5903  -2.5903
    -2.5878  -2.5859  -2.5734  -2.5734  -2.4700  -2.4700  -2.2654  -1.9174
    -1.9174  -1.3920  -1.3852  -1.2992  -1.2531  -1.2531  -1.1033  -0.9472
    -0.9472  -0.9450  -0.9450  -0.4561  -0.4561  -0.1905  -0.0509  -0.0378
    -0.0378   0.0629   0.0629   0.0902   0.1696   0.1850   0.1850   0.1973
     0.1973   0.2220   0.2220   0.2525   0.4172   0.4887   0.4888   0.6193
     0.6554   0.6554   1.4677   1.4677   1.4813   2.4662   2.6794   2.6794
     2.8291   2.8292   3.6708   4.0022   4.3994   4.4181   4.4181   4.4419
     4.4473   4.4540   4.4540   4.5385   4.5386   4.8748   4.8748   4.8941
     4.8942   5.3275   5.3276   5.4452   5.4996   5.4997   5.5791

          k = 0.0000 0.0000-0.3680 ( 10438 PWs)   bands (ev):

  -106.7798 -72.6532 -72.6464 -72.6464 -72.6463 -72.6463 -72.6420 -72.5999
   -72.5963 -65.7082 -65.5279 -65.5279 -36.7557 -36.7422 -36.7422 -36.7113
   -36.7113 -36.6929 -36.6764 -36.6764 -36.5922 -36.5922 -36.5759 -36.5567
   -36.5567 -36.5563 -36.5563 -36.5380 -36.5362 -36.5215 -36.5111 -36.4867
   -36.4867 -36.4746 -36.4511 -36.4511 -12.8312 -11.4720 -11.4685 -11.4685
   -11.2714 -11.2714 -11.1903 -11.0423 -10.7350 -10.7350 -10.7342 -10.5498
   -10.5498 -10.5173 -10.3317 -10.3317  -9.9983  -9.9983  -4.4395  -3.9820
    -3.9820  -3.9343  -3.8701  -3.8276  -3.8276  -3.6599  -3.6599  -3.5151
    -3.3334  -2.7034  -2.7002  -2.7002  -2.6116  -2.6116  -2.5930  -2.5930
    -2.5900  -2.5867  -2.5738  -2.5738  -2.4780  -2.4780  -2.2657  -1.9188
    -1.9188  -1.3917  -1.3858  -1.2944  -1.2482  -1.2482  -1.0992  -0.9472
    -0.9472  -0.9407  -0.9407  -0.4624  -0.4624  -0.1904  -0.0513  -0.0417
    -0.0417   0.0525   0.0525   0.0896   0.1651   0.1652   0.1695   0.2001
     0.2001   0.2214   0.2214   0.2395   0.4170   0.4792   0.4793   0.6176
     0.6543   0.6543   1.4501   1.4501   1.4795   2.4545   2.6499   2.6499
     2.8233   2.8233   3.6635   3.9985   4.3996   4.4175   4.4175   4.4387
     4.4476   4.4522   4.4522   4.5365   4.5366   4.8747   4.8748   4.8944
     4.8944   5.3165   5.3166   5.4326   5.4874   5.4875   5.5665

          k = 0.0000 0.1443 0.0000 ( 10443 PWs)   bands (ev):

  -106.7811 -72.6534 -72.6474 -72.6472 -72.6460 -72.6460 -72.6407 -72.5998
   -72.5962 -65.7037 -65.5359 -65.5358 -36.7665 -36.7421 -36.7343 -36.7087
   -36.7039 -36.6724 -36.6569 -36.6461 -36.5900 -36.5899 -36.5828 -36.5627
   -36.5603 -36.5594 -36.5570 -36.5525 -36.5238 -36.5209 -36.5027 -36.5027
   -36.5013 -36.4909 -36.4680 -36.4658 -12.8057 -11.6804 -11.5260 -11.4273
   -11.1978 -11.1935 -11.1799 -10.9505 -10.7977 -10.7392 -10.6927 -10.5783
   -10.5426 -10.4766 -10.3494 -10.3478 -10.0020  -9.9994  -4.4094  -4.1757
    -4.0289  -3.9565  -3.7884  -3.7854  -3.7827  -3.6588  -3.6109  -3.5571
    -3.3791  -2.8516  -2.7818  -2.7203  -2.7033  -2.6744  -2.6255  -2.5837
    -2.5434  -2.4606  -2.4442  -2.4411  -2.3889  -2.2485  -2.2378  -1.8904
    -1.8826  -1.4396  -1.4149  -1.3812  -1.3154  -1.2955  -1.1091  -1.0268
    -1.0077  -0.9273  -0.9145  -0.4168  -0.4019  -0.3252  -0.1160  -0.0443
    -0.0070   0.0098   0.0142   0.0537   0.1001   0.1074   0.1210   0.1639
     0.1731   0.1893   0.2952   0.3171   0.4182   0.4887   0.5666   0.6712
     0.7509   0.7542   1.4048   1.4429   1.5184   2.4846   2.6042   2.6698
     2.7524   2.8128   3.7888   4.0401   4.2748   4.2898   4.3688   4.4354
     4.4588   4.5197   4.5473   4.6057   4.6360   4.8215   4.8340   4.8743
     4.9159   5.2669   5.3313   5.3408   5.4416   5.5433   5.6185

          k = 0.0000 0.1443 0.1840 ( 10443 PWs)   bands (ev):

  -106.7815 -72.6537 -72.6472 -72.6471 -72.6458 -72.6457 -72.6413 -72.5998
   -72.5963 -65.6952 -65.5492 -65.5314 -36.7624 -36.7413 -36.7375 -36.7084
   -36.7012 -36.6744 -36.6600 -36.6461 -36.5932 -36.5926 -36.5904 -36.5570
   -36.5554 -36.5540 -36.5512 -36.5491 -36.5315 -36.5174 -36.5067 -36.5053
   -36.5046 -36.4913 -36.4681 -36.4650 -12.8057 -11.6803 -11.5260 -11.4271
   -11.1975 -11.1926 -11.1808 -10.9501 -10.7964 -10.7383 -10.6917 -10.5775
   -10.5421 -10.4759 -10.3505 -10.3490 -10.0024  -9.9995  -4.4113  -4.1754
    -4.0292  -3.9568  -3.7905  -3.7866  -3.7865  -3.6600  -3.6105  -3.5590
    -3.3800  -2.8498  -2.7811  -2.7199  -2.7030  -2.6735  -2.6250  -2.5838
    -2.5432  -2.4610  -2.4453  -2.4394  -2.3876  -2.2493  -2.2354  -1.8910
    -1.8832  -1.4399  -1.4155  -1.3800  -1.3139  -1.2963  -1.1069  -1.0261
    -0.9911  -0.9313  -0.9021  -0.4156  -0.4090  -0.3238  -0.1113  -0.0345
    -0.0015   0.0108   0.0127   0.0429   0.1064   0.1067   0.1224   0.1650
     0.1677   0.1911   0.2953   0.3008   0.4148   0.4903   0.5536   0.6708
     0.7499   0.7522   1.4028   1.4351   1.4993   2.4812   2.6291   2.6691
     2.7464   2.8147   3.7844   4.0396   4.2740   4.2889   4.3690   4.4359
     4.4590   4.5218   4.5481   4.6076   4.6401   4.8225   4.8348   4.8739
     4.9188   5.2642   5.3276   5.3400   5.4440   5.5459   5.6163

          k = 0.0000 0.1443-0.3680 ( 10430 PWs)   bands (ev):

  -106.7769 -72.6534 -72.6475 -72.6468 -72.6455 -72.6453 -72.6416 -72.5997
   -72.5962 -65.6704 -65.5471 -65.5237 -36.7587 -36.7419 -36.7382 -36.7062
   -36.7015 -36.6757 -36.6609 -36.6480 -36.5916 -36.5912 -36.5850 -36.5562
   -36.5542 -36.5515 -36.5442 -36.5416 -36.5407 -36.5135 -36.5088 -36.5050
   -36.5015 -36.4884 -36.4699 -36.4564 -12.8042 -11.6795 -11.5257 -11.4266
   -11.1958 -11.1920 -11.1807 -10.9481 -10.7961 -10.7389 -10.6916 -10.5776
   -10.5424 -10.4756 -10.3521 -10.3505 -10.0029  -9.9995  -4.4106  -4.1746
    -4.0283  -3.9559  -3.7929  -3.7887  -3.7878  -3.6609  -3.6093  -3.5600
    -3.3801  -2.8476  -2.7805  -2.7200  -2.7032  -2.6725  -2.6252  -2.5839
    -2.5434  -2.4610  -2.4458  -2.4412  -2.3906  -2.2469  -2.2383  -1.8910
    -1.8834  -1.4397  -1.4163  -1.3770  -1.3131  -1.2904  -1.1051  -1.0233
    -0.9928  -0.9282  -0.8853  -0.4206  -0.4098  -0.3236  -0.1097  -0.0271
    -0.0006   0.0109   0.0197   0.0472   0.1014   0.1168   0.1218   0.1646
     0.1693   0.1949   0.3001   0.3389   0.4164   0.4867   0.5570   0.6730
     0.7518   0.7521   1.4035   1.4407   1.5040   2.4850   2.6156   2.6785
     2.7523   2.8152   3.7814   4.0420   4.2750   4.2879   4.3686   4.4365
     4.4618   4.5256   4.5506   4.6106   4.6452   4.8245   4.8339   4.8751
     4.9227   5.2570   5.3208   5.3323   5.4430   5.5498   5.6157

          k = 0.0000 0.2887 0.0000 ( 10452 PWs)   bands (ev):

  -106.7836 -72.6525 -72.6487 -72.6477 -72.6451 -72.6450 -72.6418 -72.5999
   -72.5963 -65.6985 -65.5506 -65.5440 -36.7827 -36.7603 -36.7502 -36.7151
   -36.7050 -36.6551 -36.6396 -36.6257 -36.5813 -36.5792 -36.5727 -36.5624
   -36.5594 -36.5587 -36.5543 -36.5492 -36.5376 -36.5198 -36.5126 -36.5098
   -36.5088 -36.4966 -36.4731 -36.4677 -12.7235 -11.9270 -11.6052 -11.4933
   -11.1474 -11.0522 -11.0452 -10.8705 -10.7963 -10.7462 -10.6949 -10.5646
   -10.5250 -10.4369 -10.4131 -10.4053 -10.0150 -10.0044  -4.4118  -4.2940
    -4.0997  -4.0402  -3.8309  -3.7644  -3.6953  -3.6789  -3.6433  -3.4661
    -3.3941  -3.0585  -2.9399  -2.8177  -2.7045  -2.6871  -2.5818  -2.5307
    -2.4961  -2.3509  -2.2711  -2.2572  -2.2383  -2.1767  -1.9270  -1.7384
    -1.7026  -1.5484  -1.5057  -1.5020  -1.4186  -1.3857  -1.2139  -1.1820
    -1.1169  -0.8543  -0.7554  -0.5618  -0.3233  -0.2964  -0.2204  -0.1930
    -0.1820  -0.1619  -0.1209  -0.0766  -0.0490   0.0199   0.0626   0.2914
     0.3008   0.3250   0.3511   0.4581   0.4908   0.5268   0.6400   0.7963
     0.9062   0.9306   1.3222   1.3733   1.5342   2.4844   2.5156   2.6202
     2.6761   2.8157   4.0227   4.0865   4.1690   4.1714   4.3654   4.4620
     4.4937   4.5274   4.6330   4.6796   4.6932   4.7586   4.8169   4.8372
     5.0337   5.0684   5.2154   5.2688   5.4286   5.4294   5.4457

          k = 0.0000 0.2887 0.1840 ( 10448 PWs)   bands (ev):

  -106.7823 -72.6528 -72.6487 -72.6477 -72.6454 -72.6450 -72.6412 -72.5998
   -72.5962 -65.7012 -65.5514 -65.5305 -36.7866 -36.7544 -36.7476 -36.7155
   -36.7016 -36.6553 -36.6385 -36.6236 -36.5885 -36.5825 -36.5795 -36.5680
   -36.5624 -36.5570 -36.5514 -36.5459 -36.5292 -36.5182 -36.5137 -36.5107
   -36.5051 -36.4910 -36.4775 -36.4630 -12.7243 -11.9272 -11.6049 -11.4930
   -11.1499 -11.0513 -11.0447 -10.8700 -10.7963 -10.7468 -10.6954 -10.5658
   -10.5254 -10.4376 -10.4115 -10.4039 -10.0148 -10.0044  -4.4128  -4.2956
    -4.0998  -4.0406  -3.8300  -3.7632  -3.6940  -3.6785  -3.6415  -3.4636
    -3.3917  -3.0598  -2.9391  -2.8161  -2.7046  -2.6870  -2.5814  -2.5310
    -2.4968  -2.3510  -2.2729  -2.2595  -2.2360  -2.1736  -1.9298  -1.7373
    -1.7015  -1.5485  -1.5054  -1.5024  -1.4189  -1.3853  -1.2153  -1.1834
    -1.1207  -0.8509  -0.7570  -0.5723  -0.3217  -0.2973  -0.2198  -0.1865
    -0.1719  -0.1670  -0.1188  -0.0709  -0.0526   0.0185   0.0626   0.2902
     0.2989   0.3497   0.3505   0.4505   0.4947   0.5264   0.6490   0.7960
     0.9066   0.9316   1.3251   1.3824   1.5217   2.4679   2.5237   2.6280
     2.6700   2.8189   4.0287   4.0888   4.1704   4.1730   4.3629   4.4616
     4.4954   4.5290   4.6342   4.6809   4.6958   4.7525   4.8164   4.8388
     5.0324   5.0616   5.2139   5.2685   5.4326   5.4331   5.4482

          k = 0.0000 0.2887-0.3680 ( 10444 PWs)   bands (ev):

  -106.7810 -72.6532 -72.6480 -72.6477 -72.6454 -72.6448 -72.6415 -72.5998
   -72.5962 -65.6777 -65.5551 -65.5392 -36.7905 -36.7553 -36.7504 -36.7180
   -36.7011 -36.6557 -36.6389 -36.6181 -36.5901 -36.5832 -36.5745 -36.5580
   -36.5574 -36.5547 -36.5445 -36.5440 -36.5354 -36.5137 -36.5130 -36.5128
   -36.5061 -36.4919 -36.4787 -36.4688 -12.7249 -11.9254 -11.6053 -11.4933
   -11.1513 -11.0505 -11.0443 -10.8686 -10.7963 -10.7460 -10.6948 -10.5659
   -10.5258 -10.4379 -10.4119 -10.4042 -10.0156 -10.0049  -4.4126  -4.2958
    -4.0989  -4.0397  -3.8305  -3.7637  -3.6939  -3.6800  -3.6412  -3.4640
    -3.3912  -3.0591  -2.9392  -2.8164  -2.7045  -2.6865  -2.5808  -2.5307
    -2.4966  -2.3514  -2.2731  -2.2602  -2.2360  -2.1717  -1.9250  -1.7377
    -1.7013  -1.5472  -1.5045  -1.5018  -1.4170  -1.3845  -1.2167  -1.1882
    -1.1106  -0.8588  -0.7461  -0.5738  -0.3207  -0.3036  -0.2198  -0.1855
    -0.1733  -0.1659  -0.1110  -0.0716  -0.0599   0.0178   0.0618   0.2905
     0.3011   0.3506   0.3850   0.4516   0.4895   0.5232   0.6463   0.7973
     0.9081   0.9342   1.3262   1.3797   1.5205   2.4859   2.5255   2.6202
     2.6574   2.8225   4.0255   4.0894   4.1699   4.1766   4.3666   4.4645
     4.4935   4.5307   4.6351   4.6815   4.6931   4.7502   4.8187   4.8365
     5.0306   5.0675   5.2118   5.2684   5.4322   5.4331   5.4493

          k = 0.0000 0.4330 0.0000 ( 10462 PWs)   bands (ev):

  -106.7864 -72.6515 -72.6497 -72.6482 -72.6450 -72.6439 -72.6427 -72.6000
   -72.5964 -65.7047 -65.5570 -65.5516 -36.8029 -36.7692 -36.7598 -36.7203
   -36.7095 -36.6472 -36.6260 -36.6069 -36.5794 -36.5731 -36.5650 -36.5610
   -36.5609 -36.5593 -36.5496 -36.5468 -36.5441 -36.5188 -36.5186 -36.5162
   -36.5118 -36.4955 -36.4822 -36.4668 -12.5962 -12.1625 -11.6585 -11.5431
   -11.1012 -10.9448 -10.9110 -10.8999 -10.7535 -10.7148 -10.6951 -10.5262
   -10.5087 -10.5011 -10.4743 -10.4231 -10.0287 -10.0082  -4.5533  -4.1684
    -4.1357  -4.0737  -3.9872  -3.8812  -3.7214  -3.5517  -3.5254  -3.3770
    -3.3748  -3.2211  -3.0857  -2.9874  -2.6995  -2.6874  -2.5004  -2.4793
    -2.3586  -2.2968  -2.1683  -2.1316  -2.1315  -2.1097  -1.6607  -1.6410
    -1.5987  -1.5965  -1.5142  -1.5003  -1.4696  -1.3817  -1.2983  -1.2817
    -1.2287  -0.8202  -0.7319  -0.5662  -0.5245  -0.4640  -0.3928  -0.3289
    -0.2888  -0.2381  -0.1826  -0.1701  -0.1649   0.0104   0.0132   0.3410
     0.4300   0.4576   0.5200   0.5370   0.5443   0.5658   0.6812   0.9138
     1.0285   1.0766   1.2927   1.2947   1.5195   2.3278   2.5343   2.5435
     2.6691   2.8342   4.0243   4.0646   4.2282   4.2812   4.4159   4.4207
     4.5270   4.5505   4.6725   4.6741   4.6950   4.7151   4.8325   4.8581
     4.9596   4.9728   5.2019   5.2059   5.2790   5.2960   5.5158

          k = 0.0000 0.4330 0.1840 ( 10464 PWs)   bands (ev):

  -106.7870 -72.6516 -72.6498 -72.6482 -72.6452 -72.6441 -72.6423 -72.6000
   -72.5964 -65.7091 -65.5576 -65.5511 -36.8012 -36.7683 -36.7600 -36.7202
   -36.7090 -36.6459 -36.6271 -36.6072 -36.5821 -36.5788 -36.5728 -36.5660
   -36.5596 -36.5579 -36.5543 -36.5457 -36.5316 -36.5212 -36.5189 -36.5179
   -36.5068 -36.4922 -36.4866 -36.4632 -12.5967 -12.1626 -11.6589 -11.5435
   -11.1027 -10.9455 -10.9111 -10.9000 -10.7540 -10.7153 -10.6949 -10.5274
   -10.5094 -10.5003 -10.4736 -10.4235 -10.0290 -10.0088  -4.5537  -4.1688
    -4.1357  -4.0738  -3.9865  -3.8801  -3.7202  -3.5502  -3.5246  -3.3753
    -3.3733  -3.2210  -3.0863  -2.9883  -2.6990  -2.6868  -2.5015  -2.4791
    -2.3590  -2.2953  -2.1687  -2.1330  -2.1295  -2.1119  -1.6597  -1.6414
    -1.6000  -1.5967  -1.5132  -1.5005  -1.4701  -1.3813  -1.2960  -1.2879
    -1.2349  -0.8330  -0.7361  -0.5703  -0.5243  -0.4612  -0.3883  -0.3269
    -0.2843  -0.2390  -0.1867  -0.1694  -0.1672   0.0080   0.0117   0.3601
     0.4296   0.4550   0.5195   0.5369   0.5430   0.5725   0.6827   0.9142
     1.0291   1.0775   1.2921   1.2945   1.5147   2.3119   2.5364   2.5472
     2.6608   2.8405   4.0265   4.0666   4.2298   4.2859   4.4168   4.4224
     4.5265   4.5524   4.6727   4.6744   4.6911   4.7134   4.8332   4.8570
     4.9593   4.9670   5.2032   5.2075   5.2799   5.2948   5.5177

          k = 0.0000 0.4330-0.3680 ( 10450 PWs)   bands (ev):

  -106.7826 -72.6520 -72.6495 -72.6480 -72.6448 -72.6438 -72.6426 -72.5999
   -72.5963 -65.6739 -65.5609 -65.5489 -36.8004 -36.7664 -36.7582 -36.7196
   -36.7072 -36.6482 -36.6277 -36.6072 -36.5825 -36.5809 -36.5644 -36.5592
   -36.5581 -36.5576 -36.5427 -36.5410 -36.5382 -36.5193 -36.5180 -36.5123
   -36.5055 -36.4930 -36.4907 -36.4663 -12.5968 -12.1620 -11.6584 -11.5430
   -11.1034 -10.9445 -10.9097 -10.8985 -10.7534 -10.7148 -10.6935 -10.5273
   -10.5097 -10.5002 -10.4733 -10.4237 -10.0295 -10.0086  -4.5532  -4.1703
    -4.1355  -4.0738  -3.9874  -3.8810  -3.7209  -3.5508  -3.5256  -3.3757
    -3.3734  -3.2203  -3.0850  -2.9869  -2.6992  -2.6868  -2.5012  -2.4791
    -2.3585  -2.2955  -2.1696  -2.1320  -2.1292  -2.1103  -1.6591  -1.6415
    -1.5997  -1.5960  -1.5134  -1.5008  -1.4675  -1.3813  -1.2958  -1.2846
    -1.2261  -0.8291  -0.7455  -0.5565  -0.5243  -0.4558  -0.3901  -0.3285
    -0.2892  -0.2392  -0.1839  -0.1668  -0.1630   0.0112   0.0130   0.4048
     0.4304   0.4574   0.5202   0.5362   0.5440   0.5712   0.6824   0.9155
     1.0319   1.0774   1.2912   1.2960   1.5089   2.3292   2.5335   2.5500
     2.6686   2.8463   4.0271   4.0662   4.2302   4.2828   4.4191   4.4229
     4.5261   4.5526   4.6715   4.6775   4.6894   4.7115   4.8321   4.8588
     4.9666   4.9698   5.2051   5.2107   5.2771   5.2958   5.5172

          k = 0.0000-0.5774 0.0000 ( 10466 PWs)   bands (ev):

  -106.7871 -72.6507 -72.6504 -72.6483 -72.6448 -72.6435 -72.6435 -72.6000
   -72.5964 -65.7257 -65.5659 -65.5285 -36.8039 -36.7724 -36.7631 -36.7202
   -36.7112 -36.6412 -36.6182 -36.6001 -36.5850 -36.5736 -36.5706 -36.5676
   -36.5564 -36.5515 -36.5508 -36.5468 -36.5466 -36.5206 -36.5193 -36.5166
   -36.5128 -36.5038 -36.4866 -36.4550 -12.4819 -12.3135 -11.6775 -11.5610
   -11.0624 -10.9928 -10.8383 -10.8206 -10.7567 -10.7231 -10.6840 -10.5565
   -10.5061 -10.5023 -10.5020 -10.4238 -10.0346 -10.0088  -4.6067  -4.1332
    -4.1159  -4.0579  -4.0216  -3.9280  -3.8385  -3.4191  -3.4116  -3.3493
    -3.3457  -3.3402  -3.1522  -3.1025  -2.6944  -2.6944  -2.4926  -2.4574
    -2.3288  -2.2095  -2.1582  -2.0705  -2.0307  -2.0297  -1.7190  -1.6727
    -1.6503  -1.6383  -1.5761  -1.5087  -1.4979  -1.3283  -1.2307  -0.9854
    -0.9787  -0.9124  -0.8945  -0.8594  -0.6308  -0.4761  -0.3976  -0.3856
    -0.3642  -0.3211  -0.2299  -0.1192  -0.1021  -0.0331  -0.0204   0.3121
     0.4968   0.5241   0.5592   0.5653   0.5844   0.5875   0.7049   0.9695
     1.0837   1.0972   1.2470   1.3452   1.4794   2.2571   2.5181   2.5485
     2.6588   2.8424   4.0004   4.0379   4.2804   4.3298   4.4008   4.4332
     4.5405   4.6136   4.6449   4.6894   4.7136   4.7368   4.7565   4.8639
     4.9017   5.0191   5.0688   5.0890   5.2934   5.4734   5.5314

          k = 0.0000-0.5774 0.1840 ( 10466 PWs)   bands (ev):

  -106.7878 -72.6511 -72.6507 -72.6480 -72.6451 -72.6432 -72.6432 -72.6000
   -72.5964 -65.6950 -65.5759 -65.5505 -36.8079 -36.7704 -36.7617 -36.7207
   -36.7098 -36.6411 -36.6196 -36.6023 -36.5867 -36.5808 -36.5750 -36.5594
   -36.5577 -36.5522 -36.5504 -36.5376 -36.5374 -36.5228 -36.5194 -36.5153
   -36.5074 -36.5040 -36.4927 -36.4648 -12.4824 -12.3140 -11.6771 -11.5605
   -11.0648 -10.9948 -10.8368 -10.8199 -10.7556 -10.7223 -10.6827 -10.5549
   -10.5073 -10.5027 -10.5013 -10.4242 -10.0346 -10.0097  -4.6073  -4.1331
    -4.1158  -4.0579  -4.0219  -3.9277  -3.8393  -3.4178  -3.4105  -3.3488
    -3.3467  -3.3422  -3.1521  -3.0996  -2.6963  -2.6957  -2.4963  -2.4575
    -2.3310  -2.2087  -2.1602  -2.0678  -2.0304  -2.0256  -1.7209  -1.6726
    -1.6502  -1.6380  -1.5758  -1.5084  -1.4957  -1.3242  -1.2322  -0.9785
    -0.9770  -0.9121  -0.8928  -0.8585  -0.6333  -0.4884  -0.4030  -0.3833
    -0.3738  -0.3279  -0.2313  -0.1182  -0.1001  -0.0280  -0.0140   0.3272
     0.4992   0.5272   0.5552   0.5606   0.5622   0.5887   0.6960   0.9679
     1.0848   1.0979   1.2488   1.3411   1.4760   2.2750   2.5082   2.5430
     2.6680   2.8514   4.0001   4.0370   4.2820   4.3318   4.4041   4.4364
     4.5443   4.6095   4.6436   4.6877   4.7155   4.7348   4.7587   4.8635
     4.9072   5.0194   5.0693   5.0833   5.2939   5.4689   5.5297

          k = 0.0000-0.5774-0.3680 ( 10480 PWs)   bands (ev):

  -106.7926 -72.6509 -72.6506 -72.6486 -72.6450 -72.6435 -72.6435 -72.6001
   -72.5966 -65.7080 -65.6000 -65.5485 -36.8050 -36.7722 -36.7612 -36.7194
   -36.7132 -36.6447 -36.6222 -36.6028 -36.5885 -36.5760 -36.5723 -36.5631
   -36.5624 -36.5536 -36.5463 -36.5452 -36.5450 -36.5281 -36.5169 -36.5151
   -36.5091 -36.5084 -36.4951 -36.4640 -12.4822 -12.3138 -11.6779 -11.5614
   -11.0634 -10.9937 -10.8376 -10.8194 -10.7562 -10.7228 -10.6834 -10.5558
   -10.5077 -10.5033 -10.5007 -10.4248 -10.0358 -10.0103  -4.6067  -4.1341
    -4.1166  -4.0589  -4.0222  -3.9291  -3.8396  -3.4183  -3.4109  -3.3490
    -3.3459  -3.3421  -3.1522  -3.1009  -2.6973  -2.6963  -2.4951  -2.4587
    -2.3310  -2.2095  -2.1631  -2.0723  -2.0325  -2.0280  -1.7137  -1.6754
    -1.6530  -1.6399  -1.5779  -1.5096  -1.5054  -1.3285  -1.2312  -1.0220
    -0.9789  -0.9124  -0.8908  -0.8581  -0.6342  -0.4965  -0.3981  -0.3853
    -0.3798  -0.3218  -0.2339  -0.1189  -0.1012  -0.0322  -0.0219   0.3746
     0.4975   0.5208   0.5455   0.5608   0.5726   0.5873   0.6887   0.9697
     1.0852   1.0980   1.2488   1.3401   1.4750   2.2159   2.5016   2.5478
     2.6621   2.8576   4.0003   4.0356   4.2860   4.3344   4.4040   4.4363
     4.5409   4.6092   4.6418   4.6906   4.7114   4.7379   4.7544   4.8621
     4.8967   5.0183   5.0676   5.0914   5.2874   5.4723   5.5298

          k = 0.1250 0.2165 0.0000 ( 10469 PWs)   bands (ev):

  -106.7899 -72.6527 -72.6481 -72.6480 -72.6459 -72.6459 -72.6415 -72.6001
   -72.5965 -65.7277 -65.5698 -65.5406 -36.7843 -36.7603 -36.7402 -36.7150
   -36.7040 -36.6656 -36.6424 -36.6302 -36.5871 -36.5845 -36.5770 -36.5640
   -36.5635 -36.5596 -36.5578 -36.5577 -36.5360 -36.5247 -36.5169 -36.5112
   -36.5108 -36.4928 -36.4711 -36.4632 -12.7506 -11.8359 -11.6774 -11.3543
   -11.2080 -11.1582 -11.0256 -10.8453 -10.8370 -10.7622 -10.6722 -10.5810
   -10.5300 -10.4461 -10.4022 -10.3775 -10.0122 -10.0029  -4.3701  -4.2850
    -4.1959  -3.8945  -3.8116  -3.7380  -3.7330  -3.7060  -3.6587  -3.5196
    -3.3665  -2.9999  -2.9484  -2.7121  -2.6721  -2.6371  -2.6033  -2.5730
    -2.5403  -2.5009  -2.3674  -2.2885  -2.1960  -2.1338  -2.0501  -1.8491
    -1.7287  -1.5145  -1.4915  -1.4661  -1.4040  -1.3624  -1.1890  -1.1470
    -0.9672  -0.9122  -0.8841  -0.4969  -0.3624  -0.3205  -0.1861  -0.1601
    -0.1509  -0.1190  -0.0785  -0.0772  -0.0030   0.1538   0.1655   0.1824
     0.2450   0.2825   0.2896   0.3923   0.4227   0.5501   0.5927   0.7949
     0.8637   0.8814   1.3358   1.4023   1.5329   2.5014   2.5073   2.6481
     2.6522   2.8092   3.9587   4.0907   4.1697   4.2422   4.2858   4.4555
     4.5013   4.5536   4.6086   4.6493   4.7206   4.7672   4.7742   4.8437
     5.0082   5.1123   5.2385   5.3352   5.3846   5.4550   5.5234

          k = 0.1250 0.2165 0.1840 ( 10446 PWs)   bands (ev):

  -106.7818 -72.6533 -72.6478 -72.6477 -72.6453 -72.6452 -72.6415 -72.5998
   -72.5963 -65.7061 -65.5530 -65.5207 -36.7775 -36.7595 -36.7375 -36.7131
   -36.7034 -36.6635 -36.6411 -36.6282 -36.5874 -36.5840 -36.5820 -36.5627
   -36.5615 -36.5552 -36.5486 -36.5477 -36.5366 -36.5179 -36.5119 -36.5088
   -36.5062 -36.4897 -36.4750 -36.4654 -12.7511 -11.8350 -11.6765 -11.3533
   -11.2070 -11.1603 -11.0249 -10.8450 -10.8362 -10.7619 -10.6718 -10.5806
   -10.5293 -10.4453 -10.4017 -10.3778 -10.0119 -10.0027  -4.3707  -4.2846
    -4.1939  -3.8938  -3.8109  -3.7376  -3.7340  -3.7071  -3.6580  -3.5189
    -3.3670  -2.9984  -2.9469  -2.7109  -2.6712  -2.6361  -2.6023  -2.5716
    -2.5390  -2.4979  -2.3655  -2.2879  -2.1917  -2.1345  -2.0519  -1.8481
    -1.7285  -1.5134  -1.4912  -1.4652  -1.4020  -1.3606  -1.1865  -1.1568
    -0.9636  -0.8832  -0.8809  -0.5026  -0.3638  -0.3203  -0.1838  -0.1553
    -0.1425  -0.1168  -0.0757  -0.0554   0.0090   0.1545   0.1800   0.1842
     0.2573   0.2826   0.2897   0.4012   0.4187   0.5638   0.6060   0.7995
     0.8648   0.8810   1.3390   1.4043   1.5201   2.5014   2.5167   2.6579
     2.6731   2.8162   3.9605   4.0926   4.1727   4.2432   4.2869   4.4584
     4.5027   4.5595   4.6104   4.6510   4.7193   4.7697   4.7761   4.8448
     5.0087   5.1080   5.2367   5.3359   5.3847   5.4539   5.5239

          k = 0.1250 0.2165-0.3680 ( 10440 PWs)   bands (ev):

  -106.7795 -72.6533 -72.6477 -72.6477 -72.6450 -72.6450 -72.6416 -72.5998
   -72.5962 -65.6841 -65.5497 -65.5287 -36.7780 -36.7633 -36.7358 -36.7154
   -36.7066 -36.6649 -36.6396 -36.6281 -36.5924 -36.5825 -36.5806 -36.5568
   -36.5565 -36.5554 -36.5440 -36.5414 -36.5400 -36.5128 -36.5105 -36.5060
   -36.5047 -36.4922 -36.4729 -36.4651 -12.7506 -11.8346 -11.6762 -11.3537
   -11.2073 -11.1608 -11.0239 -10.8438 -10.8352 -10.7611 -10.6718 -10.5805
   -10.5295 -10.4454 -10.4011 -10.3789 -10.0126 -10.0026  -4.3703  -4.2839
    -4.1929  -3.8944  -3.8114  -3.7385  -3.7345  -3.7077  -3.6587  -3.5206
    -3.3688  -2.9971  -2.9460  -2.7112  -2.6715  -2.6371  -2.6023  -2.5712
    -2.5406  -2.4967  -2.3647  -2.2865  -2.1884  -2.1325  -2.0476  -1.8485
    -1.7301  -1.5125  -1.4902  -1.4645  -1.4005  -1.3588  -1.1788  -1.1601
    -0.9554  -0.8960  -0.8719  -0.5007  -0.3648  -0.3215  -0.1854  -0.1522
    -0.1443  -0.1188  -0.0725  -0.0454   0.0063   0.1553   0.1826   0.1858
     0.2718   0.2852   0.2903   0.4159   0.4188   0.5544   0.6059   0.8017
     0.8641   0.8807   1.3387   1.4043   1.5155   2.5123   2.5258   2.6556
     2.6635   2.8134   3.9566   4.0918   4.1729   4.2416   4.2862   4.4603
     4.5045   4.5626   4.6112   4.6521   4.7195   4.7677   4.7805   4.8478
     5.0100   5.1135   5.2383   5.3326   5.3822   5.4583   5.5233

          k = 0.1250 0.3608 0.0000 ( 10462 PWs)   bands (ev):

  -106.7865 -72.6517 -72.6492 -72.6483 -72.6450 -72.6448 -72.6421 -72.6000
   -72.5964 -65.7148 -65.5555 -65.5449 -36.7930 -36.7717 -36.7481 -36.7176
   -36.7088 -36.6568 -36.6259 -36.6135 -36.5801 -36.5719 -36.5718 -36.5662
   -36.5645 -36.5591 -36.5532 -36.5515 -36.5397 -36.5234 -36.5214 -36.5135
   -36.5113 -36.4922 -36.4740 -36.4646 -12.6449 -12.0467 -11.7914 -11.3564
   -11.1190 -11.0835 -10.9099 -10.8906 -10.7960 -10.7168 -10.6628 -10.5537
   -10.5126 -10.4905 -10.4275 -10.4253 -10.0265 -10.0051  -4.4743  -4.2893
    -4.1990  -4.0249  -3.8703  -3.7887  -3.6759  -3.6298  -3.5566  -3.5129
    -3.3717  -3.1813  -3.0667  -2.7969  -2.6460  -2.6202  -2.5336  -2.5094
    -2.4624  -2.4421  -2.3206  -2.2101  -2.1184  -1.9360  -1.7804  -1.6496
    -1.6252  -1.5987  -1.5474  -1.4935  -1.4404  -1.4256  -1.3286  -1.2658
    -1.0613  -0.7785  -0.7746  -0.7050  -0.4809  -0.4088  -0.2857  -0.2843
    -0.2200  -0.2010  -0.1777  -0.1345  -0.0657  -0.0647   0.1575   0.2759
     0.3252   0.4094   0.4277   0.4781   0.5453   0.6113   0.6197   0.9455
     0.9844   1.0539   1.2620   1.3454   1.5300   2.3719   2.5358   2.5651
     2.6555   2.8228   4.0701   4.1184   4.1814   4.2156   4.2974   4.4805
     4.5168   4.5433   4.6438   4.6777   4.6937   4.7196   4.8250   4.8830
     4.9114   5.0888   5.2039   5.2204   5.2765   5.3625   5.4593

          k = 0.1250 0.3608 0.1840 ( 10450 PWs)   bands (ev):

  -106.7824 -72.6520 -72.6487 -72.6484 -72.6451 -72.6445 -72.6420 -72.5999
   -72.5963 -65.7008 -65.5524 -65.5302 -36.7955 -36.7745 -36.7456 -36.7173
   -36.7077 -36.6566 -36.6227 -36.6101 -36.5797 -36.5767 -36.5683 -36.5660
   -36.5638 -36.5576 -36.5526 -36.5452 -36.5335 -36.5230 -36.5181 -36.5108
   -36.5073 -36.4912 -36.4766 -36.4634 -12.6453 -12.0460 -11.7914 -11.3568
   -11.1205 -11.0824 -10.9081 -10.8892 -10.7953 -10.7157 -10.6631 -10.5540
   -10.5129 -10.4898 -10.4274 -10.4256 -10.0262 -10.0057  -4.4740  -4.2893
    -4.2003  -4.0251  -3.8700  -3.7880  -3.6760  -3.6292  -3.5559  -3.5136
    -3.3712  -3.1811  -3.0661  -2.7952  -2.6443  -2.6200  -2.5331  -2.5087
    -2.4645  -2.4407  -2.3199  -2.2087  -2.1179  -1.9369  -1.7781  -1.6480
    -1.6253  -1.5977  -1.5470  -1.4920  -1.4373  -1.4270  -1.3295  -1.2638
    -1.0578  -0.7749  -0.7673  -0.7064  -0.4786  -0.4071  -0.2845  -0.2792
    -0.2145  -0.2015  -0.1729  -0.1337  -0.0664  -0.0629   0.1593   0.2884
     0.3245   0.4136   0.4279   0.4786   0.5448   0.6141   0.6306   0.9459
     0.9854   1.0539   1.2630   1.3459   1.5209   2.3744   2.5409   2.5712
     2.6670   2.8287   4.0731   4.1190   4.1853   4.2181   4.3003   4.4831
     4.5192   4.5455   4.6461   4.6771   4.6920   4.7210   4.8258   4.8848
     4.9128   5.0854   5.2038   5.2196   5.2755   5.3623   5.4616

          k = 0.1250 0.3608-0.3680 ( 10442 PWs)   bands (ev):

  -106.7798 -72.6524 -72.6487 -72.6483 -72.6446 -72.6443 -72.6421 -72.5998
   -72.5962 -65.6735 -65.5585 -65.5328 -36.7956 -36.7741 -36.7452 -36.7176
   -36.7076 -36.6567 -36.6242 -36.6109 -36.5863 -36.5771 -36.5680 -36.5627
   -36.5606 -36.5578 -36.5439 -36.5387 -36.5355 -36.5199 -36.5103 -36.5101
   -36.5041 -36.4948 -36.4800 -36.4654 -12.6460 -12.0460 -11.7912 -11.3562
   -11.1210 -11.0822 -10.9085 -10.8890 -10.7951 -10.7154 -10.6636 -10.5539
   -10.5128 -10.4890 -10.4274 -10.4255 -10.0265 -10.0056  -4.4734  -4.2887
    -4.2008  -4.0253  -3.8699  -3.7884  -3.6757  -3.6298  -3.5556  -3.5128
    -3.3708  -3.1804  -3.0657  -2.7953  -2.6443  -2.6195  -2.5322  -2.5086
    -2.4632  -2.4393  -2.3176  -2.2072  -2.1168  -1.9358  -1.7779  -1.6467
    -1.6245  -1.5977  -1.5472  -1.4919  -1.4345  -1.4283  -1.3302  -1.2643
    -1.0579  -0.7783  -0.7711  -0.7172  -0.4768  -0.4017  -0.2840  -0.2783
    -0.2159  -0.2011  -0.1702  -0.1344  -0.0659  -0.0582   0.1578   0.3135
     0.3243   0.4276   0.4493   0.4774   0.5401   0.6101   0.6331   0.9479
     0.9863   1.0547   1.2636   1.3460   1.5169   2.3683   2.5421   2.5706
     2.6665   2.8380   4.0728   4.1199   4.1839   4.2185   4.3016   4.4841
     4.5197   4.5459   4.6499   4.6794   4.6867   4.7212   4.8280   4.8849
     4.9200   5.0853   5.2034   5.2174   5.2744   5.3613   5.4583

          k = 0.1250 0.5052 0.0000 ( 10466 PWs)   bands (ev):

  -106.7871 -72.6511 -72.6499 -72.6485 -72.6450 -72.6437 -72.6429 -72.6000
   -72.5964 -65.7144 -65.5605 -65.5443 -36.8068 -36.7826 -36.7524 -36.7200
   -36.7083 -36.6479 -36.6112 -36.5983 -36.5791 -36.5704 -36.5689 -36.5660
   -36.5565 -36.5526 -36.5503 -36.5447 -36.5437 -36.5271 -36.5201 -36.5189
   -36.5119 -36.5043 -36.4860 -36.4644 -12.5052 -12.2517 -11.8415 -11.3777
   -11.0712 -10.9742 -10.9255 -10.8254 -10.8144 -10.6719 -10.6638 -10.5624
   -10.5193 -10.5045 -10.4695 -10.4250 -10.0366 -10.0074  -4.5706  -4.2733
    -4.1754  -4.0548  -3.9069  -3.8455  -3.7858  -3.5077  -3.4612  -3.3862
    -3.3776  -3.3074  -3.1505  -3.0009  -2.6252  -2.6059  -2.5031  -2.4533
    -2.3824  -2.3259  -2.2471  -2.1672  -2.0816  -1.8020  -1.6917  -1.6846
    -1.6657  -1.6302  -1.5670  -1.5295  -1.4747  -1.2745  -1.2667  -1.1985
    -0.9361  -0.9257  -0.8519  -0.6581  -0.5619  -0.5570  -0.4626  -0.4112
    -0.3208  -0.3159  -0.2363  -0.1902  -0.1223  -0.0084   0.1004   0.3021
     0.4192   0.4302   0.5338   0.5944   0.6191   0.6230   0.6480   1.0389
     1.0668   1.1340   1.2483   1.3295   1.4849   2.2619   2.5208   2.5534
     2.6602   2.8413   4.0364   4.0733   4.2496   4.3260   4.3692   4.4065
     4.5334   4.5694   4.6498   4.6546   4.7220   4.7248   4.7284   4.8458
     4.9802   5.0212   5.0565   5.1903   5.2489   5.3914   5.5395

          k = 0.1250 0.5052 0.1840 ( 10461 PWs)   bands (ev):

  -106.7855 -72.6512 -72.6501 -72.6485 -72.6447 -72.6436 -72.6429 -72.5999
   -72.5964 -65.7002 -65.5689 -65.5389 -36.8033 -36.7806 -36.7523 -36.7192
   -36.7093 -36.6486 -36.6128 -36.6012 -36.5806 -36.5776 -36.5729 -36.5626
   -36.5579 -36.5520 -36.5484 -36.5424 -36.5366 -36.5266 -36.5186 -36.5158
   -36.5079 -36.5033 -36.4873 -36.4649 -12.5058 -12.2524 -11.8418 -11.3772
   -11.0715 -10.9741 -10.9255 -10.8252 -10.8144 -10.6716 -10.6639 -10.5623
   -10.5191 -10.5039 -10.4692 -10.4247 -10.0366 -10.0064  -4.5699  -4.2731
    -4.1756  -4.0549  -3.9068  -3.8452  -3.7862  -3.5063  -3.4621  -3.3865
    -3.3778  -3.3068  -3.1495  -3.0000  -2.6258  -2.6074  -2.5016  -2.4520
    -2.3814  -2.3244  -2.2454  -2.1671  -2.0824  -1.8022  -1.6922  -1.6806
    -1.6661  -1.6308  -1.5687  -1.5305  -1.4723  -1.2763  -1.2653  -1.2005
    -0.9398  -0.9237  -0.8515  -0.6573  -0.5588  -0.5579  -0.4631  -0.4108
    -0.3305  -0.3157  -0.2357  -0.1890  -0.1194  -0.0081   0.0986   0.3259
     0.4239   0.4309   0.5335   0.5951   0.6193   0.6303   0.6439   1.0401
     1.0673   1.1349   1.2476   1.3278   1.4809   2.2584   2.5184   2.5540
     2.6608   2.8523   4.0360   4.0729   4.2503   4.3289   4.3723   4.4094
     4.5350   4.5704   4.6508   4.6542   4.7222   4.7238   4.7293   4.8451
     4.9803   5.0214   5.0561   5.1910   5.2471   5.3891   5.5382

          k = 0.1250 0.5052-0.3680 ( 10456 PWs)   bands (ev):

  -106.7845 -72.6515 -72.6500 -72.6485 -72.6444 -72.6436 -72.6429 -72.5999
   -72.5963 -65.6889 -65.5699 -65.5373 -36.8022 -36.7817 -36.7513 -36.7191
   -36.7082 -36.6483 -36.6116 -36.6018 -36.5855 -36.5801 -36.5698 -36.5624
   -36.5592 -36.5513 -36.5450 -36.5386 -36.5381 -36.5260 -36.5174 -36.5119
   -36.5057 -36.5040 -36.4889 -36.4668 -12.5063 -12.2522 -11.8420 -11.3780
   -11.0715 -10.9733 -10.9248 -10.8253 -10.8129 -10.6715 -10.6637 -10.5622
   -10.5183 -10.5042 -10.4684 -10.4246 -10.0365 -10.0061  -4.5690  -4.2733
    -4.1750  -4.0560  -3.9072  -3.8458  -3.7863  -3.5056  -3.4618  -3.3878
    -3.3780  -3.3076  -3.1495  -2.9999  -2.6254  -2.6074  -2.4999  -2.4510
    -2.3858  -2.3229  -2.2439  -2.1680  -2.0813  -1.8034  -1.6922  -1.6817
    -1.6657  -1.6307  -1.5692  -1.5306  -1.4705  -1.2743  -1.2663  -1.1973
    -0.9462  -0.9220  -0.8503  -0.6573  -0.5583  -0.5573  -0.4624  -0.4124
    -0.3380  -0.3178  -0.2354  -0.1878  -0.1213  -0.0105   0.1000   0.3479
     0.4286   0.4436   0.5343   0.5942   0.6190   0.6324   0.6441   1.0421
     1.0680   1.1348   1.2474   1.3283   1.4758   2.2489   2.5179   2.5570
     2.6585   2.8583   4.0376   4.0742   4.2508   4.3296   4.3715   4.4097
     4.5355   4.5714   4.6512   4.6516   4.7230   4.7236   4.7314   4.8449
     4.9750   5.0212   5.0598   5.1952   5.2430   5.3861   5.5371

          k = 0.2500 0.4330 0.0000 ( 10467 PWs)   bands (ev):

  -106.7869 -72.6512 -72.6494 -72.6492 -72.6442 -72.6441 -72.6429 -72.5999
   -72.5964 -65.7150 -65.5595 -65.5453 -36.8013 -36.7890 -36.7474 -36.7183
   -36.7102 -36.6558 -36.6117 -36.6012 -36.5760 -36.5734 -36.5699 -36.5667
   -36.5597 -36.5522 -36.5492 -36.5491 -36.5392 -36.5273 -36.5198 -36.5139
   -36.5111 -36.5024 -36.4779 -36.4683 -12.5217 -12.1729 -11.9635 -11.2031
   -11.0781 -11.0679 -10.9502 -10.8539 -10.8256 -10.6665 -10.6218 -10.5654
   -10.5400 -10.5047 -10.4451 -10.4256 -10.0382 -10.0044  -4.4966  -4.4015
    -4.2061  -4.0668  -3.8169  -3.7588  -3.7192  -3.5982  -3.5480  -3.4350
    -3.3836  -3.2948  -3.1480  -2.8094  -2.6422  -2.5470  -2.5207  -2.4903
    -2.4185  -2.3798  -2.2720  -2.2136  -2.1011  -1.7209  -1.6866  -1.6633
    -1.6535  -1.6432  -1.5930  -1.5184  -1.4849  -1.4103  -1.2830  -1.0035
    -0.9208  -0.8796  -0.7954  -0.7676  -0.6939  -0.6554  -0.3822  -0.3557
    -0.3406  -0.2531  -0.2083  -0.1425  -0.0340   0.0071   0.0098   0.2585
     0.2822   0.3989   0.5833   0.6030   0.6092   0.6336   0.6665   1.0351
     1.1099   1.1853   1.2122   1.3219   1.4891   2.2562   2.5314   2.5539
     2.6487   2.8401   4.0829   4.1607   4.1841   4.2609   4.3453   4.4085
     4.4969   4.5586   4.6223   4.6495   4.7024   4.7270   4.7387   4.8357
     5.0184   5.0445   5.0485   5.2225   5.2654   5.3186   5.5683

          k = 0.2500 0.4330 0.1840 ( 10447 PWs)   bands (ev):

  -106.7804 -72.6509 -72.6492 -72.6490 -72.6442 -72.6441 -72.6426 -72.5998
   -72.5963 -65.6999 -65.5471 -65.5242 -36.8019 -36.7877 -36.7471 -36.7172
   -36.7081 -36.6532 -36.6090 -36.5968 -36.5769 -36.5729 -36.5668 -36.5641
   -36.5569 -36.5524 -36.5467 -36.5466 -36.5378 -36.5296 -36.5173 -36.5115
   -36.5090 -36.5001 -36.4763 -36.4623 -12.5226 -12.1725 -11.9631 -11.2031
   -11.0760 -11.0678 -10.9488 -10.8526 -10.8256 -10.6664 -10.6220 -10.5652
   -10.5402 -10.5042 -10.4448 -10.4253 -10.0381 -10.0041  -4.4964  -4.4014
    -4.2066  -4.0666  -3.8152  -3.7585  -3.7187  -3.5979  -3.5461  -3.4350
    -3.3839  -3.2952  -3.1483  -2.8109  -2.6433  -2.5471  -2.5207  -2.4901
    -2.4181  -2.3787  -2.2709  -2.2137  -2.1002  -1.7201  -1.6856  -1.6625
    -1.6480  -1.6428  -1.5922  -1.5180  -1.4817  -1.4089  -1.2807  -1.0014
    -0.9196  -0.8630  -0.7977  -0.7668  -0.6916  -0.6480  -0.3752  -0.3390
    -0.3340  -0.2522  -0.2062  -0.1397  -0.0342   0.0060   0.0116   0.2571
     0.2842   0.4129   0.5840   0.6043   0.6221   0.6348   0.6795   1.0365
     1.1092   1.1861   1.2126   1.3228   1.4856   2.2623   2.5350   2.5618
     2.6668   2.8470   4.0843   4.1612   4.1862   4.2632   4.3491   4.4122
     4.4986   4.5591   4.6225   4.6514   4.7064   4.7288   4.7387   4.8378
     5.0207   5.0437   5.0515   5.2209   5.2697   5.3201   5.5684

          k = 0.2500 0.4330-0.3680 ( 10452 PWs)   bands (ev):

  -106.7830 -72.6512 -72.6496 -72.6494 -72.6440 -72.6440 -72.6425 -72.5998
   -72.5963 -65.6802 -65.5607 -65.5455 -36.7978 -36.7882 -36.7480 -36.7174
   -36.7131 -36.6565 -36.6047 -36.5982 -36.5839 -36.5759 -36.5733 -36.5678
   -36.5588 -36.5523 -36.5397 -36.5377 -36.5357 -36.5350 -36.5162 -36.5088
   -36.5050 -36.5028 -36.4827 -36.4665 -12.5228 -12.1733 -11.9639 -11.2036
   -11.0765 -11.0684 -10.9485 -10.8523 -10.8246 -10.6653 -10.6222 -10.5643
   -10.5403 -10.5034 -10.4437 -10.4250 -10.0377 -10.0034  -4.4961  -4.4008
    -4.2062  -4.0672  -3.8163  -3.7604  -3.7204  -3.6006  -3.5460  -3.4366
    -3.3833  -3.2941  -3.1461  -2.8096  -2.6427  -2.5471  -2.5214  -2.4906
    -2.4187  -2.3789  -2.2729  -2.2128  -2.1023  -1.7208  -1.6861  -1.6631
    -1.6500  -1.6426  -1.5925  -1.5165  -1.4794  -1.4092  -1.2786  -1.0021
    -0.9184  -0.8680  -0.8059  -0.7674  -0.6914  -0.6550  -0.3822  -0.3473
    -0.3453  -0.2521  -0.2037  -0.1372  -0.0322   0.0070   0.0174   0.2569
     0.2835   0.4263   0.5833   0.5978   0.6034   0.6336   0.6650   1.0330
     1.1088   1.1858   1.2094   1.3269   1.4815   2.2620   2.5234   2.5644
     2.6671   2.8540   4.0814   4.1595   4.1839   4.2616   4.3496   4.4129
     4.4987   4.5613   4.6201   4.6545   4.7025   4.7304   4.7397   4.8398
     5.0248   5.0429   5.0558   5.2191   5.2732   5.3179   5.5670

          k = 0.2500 0.5774 0.0000 ( 10491 PWs)   bands (ev):

  -106.7946 -72.6510 -72.6507 -72.6494 -72.6438 -72.6437 -72.6436 -72.6001
   -72.5965 -65.7184 -65.5890 -65.5682 -36.8027 -36.7964 -36.7511 -36.7207
   -36.7138 -36.6563 -36.6052 -36.5966 -36.5783 -36.5762 -36.5753 -36.5692
   -36.5516 -36.5500 -36.5461 -36.5423 -36.5421 -36.5333 -36.5307 -36.5171
   -36.5139 -36.5104 -36.4826 -36.4771 -12.4072 -12.2938 -12.0187 -11.1739
   -11.0445 -10.9837 -10.9572 -10.8929 -10.8762 -10.6588 -10.6085 -10.5765
   -10.5236 -10.5071 -10.4475 -10.4304 -10.0435 -10.0033  -4.5168  -4.3784
    -4.3279  -3.9499  -3.8394  -3.7761  -3.7620  -3.6008  -3.4770  -3.4689
    -3.4164  -3.2040  -3.1441  -2.9658  -2.6586  -2.5449  -2.4897  -2.4622
    -2.3847  -2.2874  -2.2502  -2.1970  -2.0560  -1.8630  -1.7419  -1.6986
    -1.6886  -1.5892  -1.5495  -1.5252  -1.4107  -1.2752  -1.1223  -1.1150
    -1.0641  -0.9122  -0.8236  -0.6625  -0.5885  -0.5717  -0.4909  -0.4570
    -0.4144  -0.3904  -0.2429  -0.2166  -0.1464   0.0105   0.1468   0.1630
     0.3143   0.3649   0.5844   0.6319   0.6564   0.6661   0.6763   1.0540
     1.1577   1.1823   1.2725   1.3388   1.4227   2.1983   2.5140   2.5485
     2.6494   2.8454   4.1047   4.1371   4.2194   4.2947   4.3409   4.3519
     4.5417   4.5495   4.5980   4.6189   4.6206   4.7171   4.7554   4.8213
     5.0067   5.0099   5.1157   5.1996   5.2055   5.3788   5.6332

          k = 0.2500 0.5774 0.1840 ( 10461 PWs)   bands (ev):

  -106.7851 -72.6504 -72.6501 -72.6493 -72.6438 -72.6436 -72.6435 -72.5999
   -72.5963 -65.6967 -65.5660 -65.5412 -36.8042 -36.7957 -36.7513 -36.7196
   -36.7141 -36.6563 -36.5983 -36.5940 -36.5739 -36.5717 -36.5695 -36.5646
   -36.5499 -36.5450 -36.5436 -36.5434 -36.5433 -36.5288 -36.5240 -36.5165
   -36.5099 -36.5085 -36.4819 -36.4684 -12.4065 -12.2935 -12.0191 -11.1736
   -11.0421 -10.9815 -10.9569 -10.8927 -10.8745 -10.6593 -10.6083 -10.5768
   -10.5237 -10.5070 -10.4481 -10.4301 -10.0433 -10.0030  -4.5164  -4.3782
    -4.3276  -3.9492  -3.8388  -3.7759  -3.7615  -3.6016  -3.4777  -3.4676
    -3.4177  -3.2051  -3.1455  -2.9676  -2.6586  -2.5429  -2.4889  -2.4605
    -2.3833  -2.2848  -2.2483  -2.1953  -2.0524  -1.8567  -1.7424  -1.6985
    -1.6891  -1.5894  -1.5513  -1.5235  -1.4098  -1.2716  -1.1147  -1.1133
    -1.0620  -0.9081  -0.8199  -0.6574  -0.5834  -0.5484  -0.4745  -0.4535
    -0.4068  -0.3854  -0.2432  -0.2167  -0.1449   0.0130   0.1460   0.1624
     0.3156   0.4083   0.6036   0.6333   0.6680   0.6782   0.6831   1.0557
     1.1592   1.1845   1.2754   1.3398   1.4233   2.2131   2.5209   2.5589
     2.6568   2.8530   4.1063   4.1375   4.2218   4.2977   4.3432   4.3542
     4.5448   4.5509   4.6063   4.6225   4.6243   4.7192   4.7570   4.8241
     5.0053   5.0121   5.1183   5.2018   5.2027   5.3792   5.6353

          k = 0.2500 0.5774-0.3680 ( 10468 PWs)   bands (ev):

  -106.7878 -72.6506 -72.6504 -72.6496 -72.6441 -72.6434 -72.6433 -72.5999
   -72.5964 -65.7103 -65.5769 -65.5357 -36.8037 -36.7877 -36.7481 -36.7186
   -36.7133 -36.6570 -36.5990 -36.5960 -36.5807 -36.5771 -36.5760 -36.5711
   -36.5509 -36.5477 -36.5448 -36.5430 -36.5396 -36.5345 -36.5261 -36.5121
   -36.5108 -36.5057 -36.4839 -36.4697 -12.4069 -12.2939 -12.0194 -11.1741
   -11.0420 -10.9813 -10.9574 -10.8932 -10.8741 -10.6587 -10.6092 -10.5762
   -10.5237 -10.5071 -10.4472 -10.4296 -10.0434 -10.0019  -4.5167  -4.3779
    -4.3271  -3.9501  -3.8399  -3.7762  -3.7619  -3.6030  -3.4767  -3.4701
    -3.4170  -3.2044  -3.1470  -2.9690  -2.6638  -2.5426  -2.4896  -2.4598
    -2.3837  -2.2838  -2.2483  -2.1958  -2.0534  -1.8584  -1.7425  -1.6990
    -1.6891  -1.5892  -1.5504  -1.5259  -1.4089  -1.2723  -1.1162  -1.1154
    -1.0628  -0.9214  -0.8234  -0.6666  -0.5823  -0.5569  -0.4738  -0.4519
    -0.4043  -0.3871  -0.2429  -0.2141  -0.1434   0.0126   0.1454   0.1594
     0.3115   0.4065   0.6048   0.6326   0.6673   0.6772   0.6805   1.0556
     1.1571   1.1840   1.2755   1.3367   1.4194   2.1908   2.5195   2.5612
     2.6502   2.8584   4.1076   4.1380   4.2221   4.2966   4.3455   4.3549
     4.5445   4.5529   4.6024   4.6212   4.6226   4.7197   4.7540   4.8199
     4.9995   5.0125   5.1213   5.1933   5.2084   5.3744   5.6343

     the Fermi energy is     2.5539 ev

!    total energy              =   -2044.39312118 Ry
     estimated scf accuracy    <       0.00000094 Ry
     smearing contrib. (-TS)   =      -0.01453666 Ry
     internal energy E=F+TS    =   -2044.37858452 Ry

     The total energy is F=E-TS. E is the sum of the following terms:
     one-electron contribution =   -5381.83767087 Ry
     hartree contribution      =    2709.75954116 Ry
     xc contribution           =    -512.35397998 Ry
     ewald contribution        =    1140.05352517 Ry

     convergence has been achieved in  13 iterations

     negative rho (up, down):  5.303E-01 0.000E+00

     Forces acting on atoms (cartesian axes, Ry/au):

     atom    1 type  1   force =    -0.01091595   -0.00033163    0.00000000
     atom    2 type  1   force =    -0.00574517   -0.00928768    0.00000000
     atom    3 type  1   force =     0.00000000    0.00000000    0.00000000
     atom    4 type  1   force =     0.01091595   -0.00033163    0.00000000
     atom    5 type  3   force =     0.00000000    0.00000000    0.00000000
     atom    6 type  1   force =     0.00517078    0.00961930    0.00000000
     atom    7 type  1   force =    -0.00000000   -0.00000000    0.00000000
     atom    8 type  1   force =     0.00574517   -0.00928768    0.00000000
     atom    9 type  1   force =    -0.00517078    0.00961930    0.00000000
     atom   10 type  2   force =    -0.00000000    0.00538176    0.00025636
     atom   11 type  2   force =    -0.00521559   -0.00301122    0.01669688
     atom   12 type  2   force =     0.00466074   -0.00269088    0.00025636
     atom   13 type  2   force =     0.00242504    0.00140010   -0.00152881
     atom   14 type  2   force =     0.00521559   -0.00301122    0.01669688
     atom   15 type  2   force =    -0.00000000    0.00602245    0.01669688
     atom   16 type  2   force =    -0.00242504    0.00140010   -0.00152881
     atom   17 type  2   force =     0.00000000   -0.00280019   -0.00152881
     atom   18 type  2   force =    -0.00466074   -0.00269088    0.00025636
     atom   19 type  2   force =    -0.00000000    0.00538176   -0.00025636
     atom   20 type  2   force =    -0.00521559   -0.00301122   -0.01669688
     atom   21 type  2   force =     0.00466074   -0.00269088   -0.00025636
     atom   22 type  2   force =     0.00242504    0.00140010    0.00152881
     atom   23 type  2   force =     0.00521559   -0.00301122   -0.01669688
     atom   24 type  2   force =     0.00000000    0.00602245   -0.01669688
     atom   25 type  2   force =    -0.00242504    0.00140010    0.00152881
     atom   26 type  2   force =     0.00000000   -0.00280019    0.00152881
     atom   27 type  2   force =    -0.00466074   -0.00269088   -0.00025636
     The non-local contrib.  to forces
     atom    1 type  1   force =     0.00876601   -0.02280771    0.00000000
     atom    2 type  1   force =    -0.01536905    0.01899544   -0.00000000
     atom    3 type  1   force =     0.00000000    0.00000000    0.00000000
     atom    4 type  1   force =    -0.00876601   -0.02280771    0.00000000
     atom    5 type  3   force =     0.00000000   -0.00000000    0.00000000
     atom    6 type  1   force =    -0.02413506    0.00381227    0.00000000
     atom    7 type  1   force =     0.00000000    0.00000000    0.00000000
     atom    8 type  1   force =     0.01536905    0.01899544    0.00000000
     atom    9 type  1   force =     0.02413506    0.00381227   -0.00000000
     atom   10 type  2   force =     0.00000000   -0.00746023    0.29036941
     atom   11 type  2   force =    -0.04962212   -0.02864934    0.27507119
     atom   12 type  2   force =    -0.00646075    0.00373011    0.29036941
     atom   13 type  2   force =     0.00604927    0.00349255    0.28294931
     atom   14 type  2   force =     0.04962212   -0.02864934    0.27507119
     atom   15 type  2   force =    -0.00000000    0.05729869    0.27507119
     atom   16 type  2   force =    -0.00604927    0.00349255    0.28294931
     atom   17 type  2   force =    -0.00000000   -0.00698510    0.28294931
     atom   18 type  2   force =     0.00646075    0.00373011    0.29036941
     atom   19 type  2   force =     0.00000000   -0.00746023   -0.29036941
     atom   20 type  2   force =    -0.04962212   -0.02864934   -0.27507119
     atom   21 type  2   force =    -0.00646075    0.00373011   -0.29036941
     atom   22 type  2   force =     0.00604927    0.00349255   -0.28294931
     atom   23 type  2   force =     0.04962212   -0.02864934   -0.27507119
     atom   24 type  2   force =     0.00000000    0.05729869   -0.27507119
     atom   25 type  2   force =    -0.00604927    0.00349255   -0.28294931
     atom   26 type  2   force =     0.00000000   -0.00698510   -0.28294931
     atom   27 type  2   force =     0.00646075    0.00373011   -0.29036941
     The ionic contribution  to forces
     atom    1 type  1   force =    -1.19168560   -2.06404595    0.00000934
     atom    2 type  1   force =    -2.38337622   -0.00000191    0.00000934
     atom    3 type  1   force =    -0.00002312    0.00000947    0.00000934
     atom    4 type  1   force =     1.19165712   -2.06403190    0.00000934
     atom    5 type  3   force =    -0.00000212    0.00000801    0.00001201
     atom    6 type  1   force =    -1.19167371    2.06405000    0.00000934
     atom    7 type  1   force =     0.00000526    0.00000190    0.00000934
     atom    8 type  1   force =     2.38334023    0.00001353    0.00000934
     atom    9 type  1   force =     1.19166978    2.06405140    0.00000934
     atom   10 type  2   force =    -0.00000003   -0.47757893  -30.96712319
     atom   11 type  2   force =    -1.39928509   -0.80788482  -32.08867497
     atom   12 type  2   force =    -0.41358737    0.23878310  -30.96712713
     atom   13 type  2   force =     0.05960318    0.03440121  -30.87089854
     atom   14 type  2   force =     1.39929325   -0.80788210  -32.08867529
     atom   15 type  2   force =     0.00000520    1.61575863  -32.08867099
     atom   16 type  2   force =    -0.05959092    0.03440390  -30.87089330
     atom   17 type  2   force =     0.00001032   -0.06881618  -30.87089453
     atom   18 type  2   force =     0.41359565    0.23878792  -30.96712256
     atom   19 type  2   force =    -0.00000003   -0.47759122   30.96710514
     atom   20 type  2   force =    -1.39936292   -0.80792976   32.08868136
     atom   21 type  2   force =    -0.41359802    0.23878925   30.96710908
     atom   22 type  2   force =     0.05960433    0.03440187   30.87088129
     atom   23 type  2   force =     1.39937109   -0.80792704   32.08868168
     atom   24 type  2   force =     0.00000520    1.61584851   32.08867738
     atom   25 type  2   force =    -0.05959207    0.03440456   30.87087605
     atom   26 type  2   force =     0.00001032   -0.06881751   30.87087728
     atom   27 type  2   force =     0.41360630    0.23879406   30.96710451
     The local contribution  to forces
     atom    1 type  1   force =     1.16754029    2.08664723    0.00014189
     atom    2 type  1   force =     2.39081276   -0.03218494    0.00024664
     atom    3 type  1   force =     0.00009080    0.00004560    0.00015448
     atom    4 type  1   force =    -1.16734943    2.08660425    0.00007937
     atom    5 type  3   force =     0.00124254    0.00054316    0.00229739
     atom    6 type  1   force =     1.22340410   -2.05430006    0.00008056
     atom    7 type  1   force =     0.00017380   -0.00000396    0.00015453
     atom    8 type  1   force =    -2.39061296   -0.03218524    0.00024587
     atom    9 type  1   force =    -1.22321287   -2.05425682    0.00014231
     atom   10 type  2   force =     0.00000545    0.48995892   30.68933938
     atom   11 type  2   force =     1.44225721    0.83264403   31.84294254
     atom   12 type  2   force =     0.42435175   -0.24501269   30.68933806
     atom   13 type  2   force =    -0.06253457   -0.03613488   30.59837788
     atom   14 type  2   force =    -1.44222361    0.83264599   31.84293163
     atom   15 type  2   force =     0.00001319   -1.66537737   31.84295175
     atom   16 type  2   force =     0.06256452   -0.03614014   30.59838700
     atom   17 type  2   force =     0.00001505    0.07219035   30.59836895
     atom   18 type  2   force =    -0.42432934   -0.24500519   30.68933996
     atom   19 type  2   force =     0.00000894    0.49001988  -30.68832176
     atom   20 type  2   force =     1.44232866    0.83275009  -31.84195046
     atom   21 type  2   force =     0.42435915   -0.24497535  -30.68831492
     atom   22 type  2   force =    -0.06253045   -0.03608569  -30.59735729
     atom   23 type  2   force =    -1.44230235    0.83275722  -31.84195553
     atom   24 type  2   force =     0.00001401   -1.66541778  -31.84194578
     atom   25 type  2   force =     0.06255844   -0.03608611  -30.59735050
     atom   26 type  2   force =     0.00001827    0.07225321  -30.59736369
     atom   27 type  2   force =    -0.42433664   -0.24497181  -30.68832380
     The core correction contribution to forces
     atom    1 type  1   force =     0.00454736    0.00026589    0.00001094
     atom    2 type  1   force =     0.00250140    0.00379633    0.00000563
     atom    3 type  1   force =     0.00001038   -0.00000842   -0.00000619
     atom    4 type  1   force =    -0.00453844    0.00025353   -0.00003540
     atom    5 type  3   force =     0.00000252    0.00000150    0.00000599
     atom    6 type  1   force =    -0.00203921   -0.00407450   -0.00003488
     atom    7 type  1   force =     0.00000930   -0.00000765   -0.00000667
     atom    8 type  1   force =    -0.00249727    0.00379669    0.00000509
     atom    9 type  1   force =     0.00204874   -0.00406194    0.00001102
     atom   10 type  2   force =    -0.00000294    0.00045560   -0.01217000
     atom   11 type  2   force =     0.00172886    0.00100022   -0.01238588
     atom   12 type  2   force =     0.00039186   -0.00022755   -0.01217048
     atom   13 type  2   force =    -0.00037290   -0.00021314   -0.01177347
     atom   14 type  2   force =    -0.00173475    0.00100015   -0.01238633
     atom   15 type  2   force =    -0.00000262   -0.00199942   -0.01238596
     atom   16 type  2   force =     0.00036642   -0.00021282   -0.01177363
     atom   17 type  2   force =    -0.00000320    0.00042776   -0.01177337
     atom   18 type  2   force =    -0.00039707   -0.00022707   -0.01216999
     atom   19 type  2   force =    -0.00000290    0.00045625    0.01211992
     atom   20 type  2   force =     0.00172717    0.00099982    0.01233625
     atom   21 type  2   force =     0.00039183   -0.00022681    0.01211987
     atom   22 type  2   force =    -0.00037281   -0.00021237    0.01172369
     atom   23 type  2   force =    -0.00173314    0.00099969    0.01233688
     atom   24 type  2   force =    -0.00000272   -0.00199682    0.01233622
     atom   25 type  2   force =     0.00036656   -0.00021227    0.01172306
     atom   26 type  2   force =    -0.00000326    0.00042810    0.01172371
     atom   27 type  2   force =    -0.00039706   -0.00022638    0.01211994
     The Hubbard contrib.    to forces
     atom    1 type  1   force =     0.00000000    0.00000000    0.00000000
     atom    2 type  1   force =     0.00000000    0.00000000    0.00000000
     atom    3 type  1   force =     0.00000000    0.00000000    0.00000000
     atom    4 type  1   force =     0.00000000    0.00000000    0.00000000
     atom    5 type  3   force =     0.00000000    0.00000000    0.00000000
     atom    6 type  1   force =     0.00000000    0.00000000    0.00000000
     atom    7 type  1   force =     0.00000000    0.00000000    0.00000000
     atom    8 type  1   force =     0.00000000    0.00000000    0.00000000
     atom    9 type  1   force =     0.00000000    0.00000000    0.00000000
     atom   10 type  2   force =     0.00000000    0.00000000    0.00000000
     atom   11 type  2   force =     0.00000000    0.00000000    0.00000000
     atom   12 type  2   force =     0.00000000    0.00000000    0.00000000
     atom   13 type  2   force =     0.00000000    0.00000000    0.00000000
     atom   14 type  2   force =     0.00000000    0.00000000    0.00000000
     atom   15 type  2   force =     0.00000000    0.00000000    0.00000000
     atom   16 type  2   force =     0.00000000    0.00000000    0.00000000
     atom   17 type  2   force =     0.00000000    0.00000000    0.00000000
     atom   18 type  2   force =     0.00000000    0.00000000    0.00000000
     atom   19 type  2   force =     0.00000000    0.00000000    0.00000000
     atom   20 type  2   force =     0.00000000    0.00000000    0.00000000
     atom   21 type  2   force =     0.00000000    0.00000000    0.00000000
     atom   22 type  2   force =     0.00000000    0.00000000    0.00000000
     atom   23 type  2   force =     0.00000000    0.00000000    0.00000000
     atom   24 type  2   force =     0.00000000    0.00000000    0.00000000
     atom   25 type  2   force =     0.00000000    0.00000000    0.00000000
     atom   26 type  2   force =     0.00000000    0.00000000    0.00000000
     atom   27 type  2   force =     0.00000000    0.00000000    0.00000000
     The SCF correction term to forces
     atom    1 type  1   force =     0.00000908   -0.00030634   -0.00000071
     atom    2 type  1   force =    -0.00026144    0.00016111   -0.00000035
     atom    3 type  1   force =     0.00000011   -0.00000013   -0.00000033
     atom    4 type  1   force =    -0.00000934   -0.00030650   -0.00000060
     atom    5 type  3   force =    -0.00000114   -0.00000044   -0.00000221
     atom    6 type  1   force =    -0.00027012    0.00014554   -0.00000003
     atom    7 type  1   force =    -0.00000013   -0.00000032   -0.00000009
     atom    8 type  1   force =     0.00026068    0.00016096   -0.00000058
     atom    9 type  1   force =     0.00026979    0.00014531   -0.00000064
     atom   10 type  2   force =    -0.00000000   -0.00002072    0.00031727
     atom   11 type  2   force =    -0.00027316   -0.00015773    0.00021729
     atom   12 type  2   force =    -0.00001788    0.00001034    0.00031739
     atom   13 type  2   force =    -0.00030358   -0.00017524    0.00028941
     atom   14 type  2   force =     0.00027316   -0.00015768    0.00021732
     atom   15 type  2   force =     0.00000001    0.00031544    0.00021727
     atom   16 type  2   force =     0.00030357   -0.00017525    0.00028931
     atom   17 type  2   force =     0.00000000    0.00035054    0.00028940
     atom   18 type  2   force =     0.00001797    0.00001038    0.00031728
     atom   19 type  2   force =    -0.00000002   -0.00002071   -0.00031789
     atom   20 type  2   force =    -0.00027315   -0.00015778   -0.00021792
     atom   21 type  2   force =    -0.00001792    0.00001034   -0.00031790
     atom   22 type  2   force =    -0.00030360   -0.00017526   -0.00028993
     atom   23 type  2   force =     0.00027315   -0.00015773   -0.00021794
     atom   24 type  2   force =     0.00000003    0.00031543   -0.00021789
     atom   25 type  2   force =     0.00030359   -0.00017530   -0.00028994
     atom   26 type  2   force =    -0.00000002    0.00035053   -0.00028990
     atom   27 type  2   force =     0.00001796    0.00001038   -0.00031792

     Total force =     0.053303     Total SCF correction =     0.001815


     Computing stress (Cartesian axis) and pressure


     negative rho (up, down):  5.303E-01 0.000E+00
          total   stress  (Ry/bohr**3)                   (kbar)     P=     -441.42
  -0.00301365  -0.00000000   0.00000000         -443.32       -0.00        0.00
  -0.00000000  -0.00301365   0.00000000           -0.00     -443.32        0.00
   0.00000000   0.00000000  -0.00297482            0.00        0.00     -437.61


     BFGS Geometry Optimization
     Energy error            =      0.0E+00 Ry
     Gradient error          =      1.7E-02 Ry/Bohr
     Cell gradient error     =      4.4E+02 kbar

     number of scf cycles    =   1
     number of bfgs steps    =   0

     enthalpy           new  =   -2044.3931211817 Ry

     new trust radius        =       0.5000000000 bohr
     new conv_thr            =       0.0001000000 Ry

     new unit-cell volume =   6318.53104 a.u.^3 (   936.30970 Ang^3 )
     density =      3.73604 g/cm^3

CELL_PARAMETERS (alat= 18.05193006)
   0.969950122  -0.000000000   0.000000000
  -0.484975061   0.840001446   0.000000000
   0.000000000   0.000000000   1.318304581

ATOMIC_POSITIONS (angstrom)
W            -0.0022347155        1.7830981130        6.2966555771
W            -1.5454444117        4.4560165445        6.2966555771
W            -3.0885374874        7.1326698351        6.2966555771
W             3.0907722029        1.7830981130        6.2966555771
Ni            1.5442682587        4.4579179195        6.2966555771
W             0.0010585626        7.1346391009        6.2966555771
W             6.1770749749        1.7831660038        6.2966555771
W             4.6339818991        4.4560165445        6.2966555771
W             3.0874789249        7.1346391009        6.2966555771
S             1.5442672888        0.8926847571        4.7829925614
S            -0.0010696768        3.5657184593        4.7863596118
S            -1.5433160507        6.2405359556        4.7829925614
S             4.6333012303        0.8918696298        4.7826269543
S             3.0896032845        3.5657184593        4.7863596118
S             1.5442672888        6.2423197496        4.7863596118
S             7.7208458095        0.8918696298        4.7826269543
S             6.1770730350        3.5657616617        4.7826269543
S             4.6318506283        6.2405359556        4.7829925614
S             1.5442672888        0.8926847571        7.8102564911
S            -0.0010696768        3.5657184593        7.8068894407
S            -1.5433160507        6.2405359556        7.8102564911
S             4.6333012303        0.8918696298        7.8106220982
S             3.0896032845        3.5657184593        7.8068894407
S             1.5442672888        6.2423197496        7.8068894407
S             7.7208458095        0.8918696298        7.8106220982
S             6.1770730350        3.5657616617        7.8106220982
S             4.6318506283        6.2405359556        7.8102564911



     Writing config-only to output data dir ./out/aiida.save/
     NEW-OLD atomic charge density approx. for the potential

     Check: negative core charge=   -0.000001

     negative rho (up, down):  4.823E-01 0.000E+00
     extrapolated charge  215.55882, renormalised to  238.00000

     total cpu time spent up to now is     4778.3 secs

     per-process dynamical memory:   314.4 Mb

     Self-consistent Calculation

     iteration #  1     ecut=    20.00 Ry     beta= 0.40
     Davidson diagonalization with overlap
     c_bands:  1 eigenvalues not converged
     c_bands:  1 eigenvalues not converged
     c_bands:  1 eigenvalues not converged
     c_bands:  1 eigenvalues not converged
     c_bands:  1 eigenvalues not converged
     c_bands:  1 eigenvalues not converged
     c_bands:  1 eigenvalues not converged
     c_bands:  1 eigenvalues not converged
     c_bands:  1 eigenvalues not converged
     c_bands:  1 eigenvalues not converged
     c_bands:  1 eigenvalues not converged
     c_bands:  1 eigenvalues not converged
     c_bands:  1 eigenvalues not converged
     c_bands:  1 eigenvalues not converged
     c_bands:  1 eigenvalues not converged
     c_bands:  1 eigenvalues not converged
     c_bands:  1 eigenvalues not converged
     ethr =  1.00E-06,  avg # of iterations = 38.1

     negative rho (up, down):  5.771E-01 0.000E+00

     total cpu time spent up to now is    12816.8 secs

     total energy              =   -1898.94087502 Ry
     estimated scf accuracy    <     189.27847298 Ry

     iteration #  2     ecut=    20.00 Ry     beta= 0.40
     Davidson diagonalization with overlap
     ethr =  1.00E-02,  avg # of iterations =  9.0

     negative rho (up, down):  5.547E-01 0.000E+00

     total cpu time spent up to now is    16616.2 secs

     total energy              =   -2011.10187164 Ry
     estimated scf accuracy    <     891.16646626 Ry

     iteration #  3     ecut=    20.00 Ry     beta= 0.40
     Davidson diagonalization with overlap
     ethr =  1.00E-02,  avg # of iterations = 10.0

     negative rho (up, down):  5.449E-01 0.000E+00

     total cpu time spent up to now is    19031.9 secs

     total energy              =   -2053.10414098 Ry
     estimated scf accuracy    <     106.39547398 Ry

     iteration #  4     ecut=    20.00 Ry     beta= 0.40
     Davidson diagonalization with overlap
     ethr =  1.00E-02,  avg # of iterations =  3.4

     negative rho (up, down):  5.443E-01 0.000E+00

     total cpu time spent up to now is    20536.8 secs

     total energy              =   -2053.80533445 Ry
     estimated scf accuracy    <      83.88133318 Ry

     iteration #  5     ecut=    20.00 Ry     beta= 0.40
     Davidson diagonalization with overlap
     ethr =  1.00E-02,  avg # of iterations =  2.1

     negative rho (up, down):  5.392E-01 0.000E+00

     total cpu time spent up to now is    21840.5 secs

     total energy              =   -2050.36516674 Ry
     estimated scf accuracy    <      43.19879734 Ry

     iteration #  6     ecut=    20.00 Ry     beta= 0.40
     Davidson diagonalization with overlap
     ethr =  1.00E-02,  avg # of iterations =  1.4

     negative rho (up, down):  5.327E-01 0.000E+00

     total cpu time spent up to now is    23106.9 secs

     total energy              =   -2046.23273563 Ry
     estimated scf accuracy    <      27.97519910 Ry

     iteration #  7     ecut=    20.00 Ry     beta= 0.40
     Davidson diagonalization with overlap
     ethr =  1.00E-02,  avg # of iterations =  1.7

     negative rho (up, down):  5.430E-01 0.000E+00

     total cpu time spent up to now is    24399.1 secs

     total energy              =   -2045.45357066 Ry
     estimated scf accuracy    <      12.24795106 Ry

     iteration #  8     ecut=    20.00 Ry     beta= 0.40
     Davidson diagonalization with overlap
     ethr =  5.15E-03,  avg # of iterations =  3.0

[...]
     4.3309   4.4434   4.5270   4.6779   4.7338   5.8231   5.8721   6.0194
     6.4112   6.4557   6.9368   7.1908   7.2694   7.6404   7.9621   8.0100
     8.3469   8.4488   8.5634   8.6323   8.6878   8.7758   8.8201   8.8502
     8.9870   9.1375   9.1672   9.3138   9.5289   9.6439   9.7264

          k = 0.2789 0.6442-0.0000 ( 10491 PWs)   bands (ev):

   -99.6145 -68.3227 -68.3178 -68.2991 -68.2752 -68.2700 -68.2686 -68.2641
   -68.2626 -59.8912 -59.8291 -59.8245 -33.1799 -33.1288 -33.1077 -33.0020
   -32.9024 -32.8651 -32.8522 -32.8371 -32.8081 -32.7466 -32.7307 -32.7260
   -32.7163 -32.7082 -32.5990 -32.5727 -32.5510 -32.5382 -32.5110 -32.5022
   -32.4902 -32.3601 -32.3405 -32.2999 -10.1633 -10.0992  -9.8211  -9.0452
    -8.7925  -8.6767  -8.2883  -7.9784  -7.9024  -7.8495  -7.8333  -7.6645
    -7.6133  -7.3824  -7.3332  -7.2874  -7.2784  -7.2029  -2.4042  -2.2492
    -2.1830  -1.5488  -1.4647  -1.4527  -1.3428  -1.2370  -1.2313  -1.2163
    -1.1404  -0.9656  -0.5866  -0.4760  -0.0757   0.1178   0.2146   0.2949
     0.6444   0.6605   0.7486   0.7961   0.8773   0.8880   0.9747   1.0849
     1.1427   1.1986   1.4180   1.4277   1.4518   1.4804   1.6861   1.7202
     1.8524   2.1215   2.1532   2.2445   2.4038   2.5179   2.7890   2.9079
     2.9376   2.9536   3.0575   3.1167   3.1448   3.1905   3.3192   3.3429
     3.5143   3.6930   3.7353   3.8055   4.0548   4.1152   4.1382   4.1538
     4.2933   4.3949   4.5167   4.6541   4.7259   5.7853   5.8946   5.9669
     6.4440   6.4755   6.9749   7.1541   7.2345   7.4585   7.8985   7.9404
     8.3835   8.5255   8.6232   8.6890   8.7124   8.7227   8.7771   8.8853
     9.0541   9.1049   9.2280   9.2821   9.5295   9.5688   9.7745

          k = 0.2789 0.6442 0.2106 ( 10461 PWs)   bands (ev):

   -99.6124 -68.3227 -68.3178 -68.2991 -68.2752 -68.2700 -68.2686 -68.2641
   -68.2626 -59.8871 -59.8244 -59.8183 -33.1800 -33.1287 -33.1076 -33.0021
   -32.9023 -32.8647 -32.8519 -32.8372 -32.8079 -32.7465 -32.7307 -32.7260
   -32.7165 -32.7083 -32.5990 -32.5726 -32.5506 -32.5377 -32.5108 -32.5019
   -32.4897 -32.3600 -32.3404 -32.2994 -10.1632 -10.0990  -9.8211  -9.0450
    -8.7923  -8.6769  -8.2883  -7.9786  -7.9023  -7.8495  -7.8335  -7.6646
    -7.6132  -7.3822  -7.3329  -7.2874  -7.2782  -7.2027  -2.4042  -2.2492
    -2.1829  -1.5485  -1.4642  -1.4527  -1.3428  -1.2369  -1.2313  -1.2163
    -1.1399  -0.9655  -0.5866  -0.4759  -0.0756   0.1190   0.2161   0.2960
     0.6447   0.6604   0.7486   0.7962   0.8777   0.8884   0.9753   1.0861
     1.1435   1.1986   1.4179   1.4300   1.4523   1.4809   1.6879   1.7208
     1.8542   2.1233   2.1549   2.2443   2.4040   2.5180   2.7896   2.9083
     2.9427   2.9552   3.0652   3.1173   3.1446   3.1946   3.3245   3.3428
     3.5147   3.6944   3.7361   3.8068   4.0545   4.1149   4.1379   4.1546
     4.2940   4.3957   4.5175   4.6548   4.7262   5.7885   5.8972   5.9693
     6.4461   6.4783   6.9771   7.1575   7.2379   7.4641   7.9006   7.9432
     8.3868   8.5241   8.6217   8.6903   8.7098   8.7249   8.7705   8.8768
     9.0534   9.1056   9.2323   9.2802   9.5229   9.5729   9.7700

          k = 0.2789 0.6442-0.4212 ( 10468 PWs)   bands (ev):

   -99.6129 -68.3227 -68.3178 -68.2991 -68.2752 -68.2700 -68.2686 -68.2641
   -68.2626 -59.8900 -59.8265 -59.8171 -33.1799 -33.1285 -33.1073 -33.0021
   -32.9022 -32.8650 -32.8521 -32.8371 -32.8081 -32.7468 -32.7309 -32.7261
   -32.7162 -32.7080 -32.5989 -32.5727 -32.5507 -32.5378 -32.5108 -32.5025
   -32.4898 -32.3601 -32.3404 -32.2993 -10.1633 -10.0991  -9.8210  -9.0452
    -8.7924  -8.6770  -8.2882  -7.9787  -7.9024  -7.8495  -7.8336  -7.6647
    -7.6132  -7.3822  -7.3330  -7.2872  -7.2778  -7.2024  -2.4042  -2.2491
    -2.1827  -1.5484  -1.4641  -1.4526  -1.3427  -1.2368  -1.2312  -1.2161
    -1.1399  -0.9658  -0.5870  -0.4761  -0.0761   0.1184   0.2166   0.2961
     0.6448   0.6603   0.7477   0.7962   0.8766   0.8884   0.9756   1.0856
     1.1415   1.1980   1.4179   1.4302   1.4520   1.4792   1.6871   1.7206
     1.8537   2.1224   2.1542   2.2445   2.4037   2.5183   2.7897   2.9080
     2.9421   2.9546   3.0651   3.1165   3.1444   3.1936   3.3258   3.3420
     3.5146   3.6949   3.7365   3.8076   4.0533   4.1139   4.1372   4.1546
     4.2945   4.3957   4.5176   4.6551   4.7261   5.7831   5.8982   5.9704
     6.4450   6.4785   6.9793   7.1604   7.2411   7.4688   7.9026   7.9458
     8.3899   8.5230   8.6202   8.6918   8.7069   8.7274   8.7634   8.8679
     9.0530   9.1058   9.2363   9.2785   9.5160   9.5767   9.7652

     the Fermi energy is     6.0661 ev

!    total energy              =   -2047.54646326 Ry
     estimated scf accuracy    <       0.00000823 Ry
     smearing contrib. (-TS)   =      -0.00610373 Ry
     internal energy E=F+TS    =   -2047.54035953 Ry

     The total energy is F=E-TS. E is the sum of the following terms:
     one-electron contribution =   -4826.57446861 Ry
     hartree contribution      =    2464.18191269 Ry
     xc contribution           =    -517.98076610 Ry
     ewald contribution        =     832.83296249 Ry

     convergence has been achieved in  17 iterations

     negative rho (up, down):  4.881E-01 0.000E+00

     Forces acting on atoms (cartesian axes, Ry/au):

     atom    1 type  1   force =     0.00153728    0.01001501    0.00000000
     atom    2 type  1   force =     0.00944189   -0.00367618    0.00000000
     atom    3 type  1   force =     0.00000000    0.00000000    0.00000000
     atom    4 type  1   force =    -0.00153728    0.01001501   -0.00000000
     atom    5 type  3   force =     0.00000000    0.00000000    0.00000000
     atom    6 type  1   force =     0.00790461   -0.00633883   -0.00000000
     atom    7 type  1   force =     0.00000000    0.00000000    0.00000000
     atom    8 type  1   force =    -0.00944189   -0.00367618    0.00000000
     atom    9 type  1   force =    -0.00790461   -0.00633883    0.00000000
     atom   10 type  2   force =     0.00000000   -0.00456553   -0.03736049
     atom   11 type  2   force =     0.00168851    0.00097486   -0.04814535
     atom   12 type  2   force =    -0.00395387    0.00228277   -0.03736049
     atom   13 type  2   force =     0.00062489    0.00036078   -0.04451166
     atom   14 type  2   force =    -0.00168851    0.00097486   -0.04814535
     atom   15 type  2   force =     0.00000000   -0.00194972   -0.04814535
     atom   16 type  2   force =    -0.00062489    0.00036078   -0.04451166
     atom   17 type  2   force =     0.00000000   -0.00072156   -0.04451166
     atom   18 type  2   force =     0.00395387    0.00228277   -0.03736049
     atom   19 type  2   force =     0.00000000   -0.00456553    0.03736049
     atom   20 type  2   force =     0.00168851    0.00097486    0.04814535
     atom   21 type  2   force =    -0.00395387    0.00228277    0.03736049
     atom   22 type  2   force =     0.00062489    0.00036078    0.04451166
     atom   23 type  2   force =    -0.00168851    0.00097486    0.04814535
     atom   24 type  2   force =     0.00000000   -0.00194972    0.04814535
     atom   25 type  2   force =    -0.00062489    0.00036078    0.04451166
     atom   26 type  2   force =     0.00000000   -0.00072156    0.04451166
     atom   27 type  2   force =     0.00395387    0.00228277    0.03736049
     The non-local contrib.  to forces
     atom    1 type  1   force =     0.02308049    0.01809583   -0.00000000
     atom    2 type  1   force =     0.02721170    0.01094037   -0.00000000
     atom    3 type  1   force =     0.00000000    0.00000000   -0.00000000
     atom    4 type  1   force =    -0.02308049    0.01809583    0.00000000
     atom    5 type  3   force =    -0.00000000    0.00000000   -0.00000000
     atom    6 type  1   force =     0.00413121   -0.02903621    0.00000000
     atom    7 type  1   force =     0.00000000   -0.00000000    0.00000000
     atom    8 type  1   force =    -0.02721170    0.01094037    0.00000000
     atom    9 type  1   force =    -0.00413121   -0.02903621    0.00000000
     atom   10 type  2   force =     0.00000000   -0.01154300    0.20533001
     atom   11 type  2   force =     0.01734758    0.01001563    0.22201357
     atom   12 type  2   force =    -0.00999653    0.00577150    0.20533001
     atom   13 type  2   force =     0.00325538    0.00187949    0.19176340
     atom   14 type  2   force =    -0.01734758    0.01001563    0.22201357
     atom   15 type  2   force =     0.00000000   -0.02003126    0.22201357
     atom   16 type  2   force =    -0.00325538    0.00187949    0.19176340
     atom   17 type  2   force =     0.00000000   -0.00375899    0.19176340
     atom   18 type  2   force =     0.00999653    0.00577150    0.20533001
     atom   19 type  2   force =     0.00000000   -0.01154300   -0.20533001
     atom   20 type  2   force =     0.01734758    0.01001563   -0.22201357
     atom   21 type  2   force =    -0.00999653    0.00577150   -0.20533001
     atom   22 type  2   force =     0.00325538    0.00187949   -0.19176340
     atom   23 type  2   force =    -0.01734758    0.01001563   -0.22201357
     atom   24 type  2   force =     0.00000000   -0.02003126   -0.22201357
     atom   25 type  2   force =    -0.00325538    0.00187949   -0.19176340
     atom   26 type  2   force =    -0.00000000   -0.00375899   -0.19176340
     atom   27 type  2   force =     0.00999653    0.00577150   -0.20533001
     The ionic contribution  to forces
     atom    1 type  1   force =    -1.83658746   -2.14430358   -0.00016179
     atom    2 type  1   force =    -2.77533094   -0.51838051   -0.00016179
     atom    3 type  1   force =    -0.00002326    0.00000808   -0.00016638
     atom    4 type  1   force =     1.83656198   -2.14428639   -0.00016179
     atom    5 type  3   force =     0.00000437    0.00000525   -0.00028180
     atom    6 type  1   force =    -0.93872056    2.66267993   -0.00016179
     atom    7 type  1   force =     0.00001019   -0.00000044   -0.00018909
     atom    8 type  1   force =     2.77529815   -0.51836352   -0.00016179
     atom    9 type  1   force =     0.93872303    2.66268026   -0.00016179
     atom   10 type  2   force =    -0.00000119   -0.53554552  -36.19888260
     atom   11 type  2   force =    -2.05614118   -1.18711894  -37.23944475
     atom   12 type  2   force =    -0.46379075    0.26776817  -36.19888679
     atom   13 type  2   force =     0.09969771    0.05755240  -36.14934689
     atom   14 type  2   force =     2.05614824   -1.18711728  -37.23944625
     atom   15 type  2   force =     0.00000417    2.37423012  -37.23944072
     atom   16 type  2   force =    -0.09968799    0.05755409  -36.14934126
     atom   17 type  2   force =     0.00000767   -0.11511492  -36.14934305
     atom   18 type  2   force =     0.46379558    0.26777234  -36.19888182
     atom   19 type  2   force =    -0.00000119   -0.53555331   36.19905550
     atom   20 type  2   force =    -2.05624606   -1.18717949   37.23961100
     atom   21 type  2   force =    -0.46379750    0.26777206   36.19905970
     atom   22 type  2   force =     0.09970511    0.05755668   36.14954374
     atom   23 type  2   force =     2.05625312   -1.18717783   37.23961250
     atom   24 type  2   force =     0.00000417    2.37435123   37.23960697
     atom   25 type  2   force =    -0.09969539    0.05755836   36.14953810
     atom   26 type  2   force =     0.00000767   -0.11512346   36.14953990
     atom   27 type  2   force =     0.46380232    0.26777623   36.19905472
     The local contribution  to forces
     atom    1 type  1   force =     1.81308646    2.13476605    0.00008564
     atom    2 type  1   force =     2.75525360    0.50283016    0.00020075
     atom    3 type  1   force =     0.00007530    0.00004059    0.00011068
     atom    4 type  1   force =    -1.81293383    2.13473353    0.00004389
     atom    5 type  3   force =     0.00115882    0.00052365    0.00204370
     atom    6 type  1   force =     0.94227957   -2.63743007    0.00005066
     atom    7 type  1   force =     0.00014585    0.00000019    0.00010794
     atom    8 type  1   force =    -2.75510125    0.50283112    0.00019974
     atom    9 type  1   force =    -0.94212239   -2.63739748    0.00009140
     atom   10 type  2   force =     0.00000517    0.54175667   35.95953553
     atom   11 type  2   force =     2.04271016    1.17932233   36.97475458
     atom   12 type  2   force =     0.46920035   -0.27089833   35.95953477
     atom   13 type  2   force =    -0.10227186   -0.05906696   35.91582114
     atom   14 type  2   force =    -2.04268617    1.17932755   36.97474794
     atom   15 type  2   force =     0.00001305   -2.35871497   36.97476900
     atom   16 type  2   force =     0.10229904   -0.05907134   35.91582448
     atom   17 type  2   force =     0.00001528    0.11808450   35.91581446
     atom   18 type  2   force =    -0.46917967   -0.27089070   35.95953775
     atom   19 type  2   force =     0.00000809    0.54180315  -35.95878218
     atom   20 type  2   force =     2.04281317    1.17943583  -36.97400016
     atom   21 type  2   force =     0.46921026   -0.27088096  -35.95877413
     atom   22 type  2   force =    -0.10227744   -0.05904234  -35.91508700
     atom   23 type  2   force =    -2.04279481    1.17944499  -36.97400926
     atom   24 type  2   force =     0.00001364   -2.35881149  -36.97399290
     atom   25 type  2   force =     0.10230292   -0.05904246  -35.91508116
     atom   26 type  2   force =     0.00001812    0.11813726  -35.91509108
     atom   27 type  2   force =    -0.46918980   -0.27087683  -35.95878254
     The core correction contribution to forces
     atom    1 type  1   force =     0.00296219    0.00141509    0.00000923
     atom    2 type  1   force =     0.00270172    0.00185237    0.00000743
     atom    3 type  1   force =     0.00000937   -0.00000756   -0.00000577
     atom    4 type  1   force =    -0.00295579    0.00140198   -0.00003390
     atom    5 type  3   force =     0.00000264    0.00000175    0.00000599
     atom    6 type  1   force =    -0.00025468   -0.00327590   -0.00003402
     atom    7 type  1   force =     0.00000895   -0.00000731   -0.00000568
     atom    8 type  1   force =    -0.00270029    0.00185262    0.00000761
     atom    9 type  1   force =     0.00026128   -0.00326310    0.00000933
     atom   10 type  2   force =    -0.00000272    0.00063458   -0.00411706
     atom   11 type  2   force =    -0.00204670   -0.00117945   -0.00646242
     atom   12 type  2   force =     0.00054677   -0.00031694   -0.00411772
     atom   13 type  2   force =    -0.00021317   -0.00012087   -0.00362834
     atom   14 type  2   force =     0.00204124   -0.00117990   -0.00646349
     atom   15 type  2   force =    -0.00000249    0.00236060   -0.00646250
     atom   16 type  2   force =     0.00020751   -0.00012093   -0.00362882
     atom   17 type  2   force =    -0.00000294    0.00024373   -0.00362813
     atom   18 type  2   force =    -0.00055173   -0.00031634   -0.00411705
     atom   19 type  2   force =    -0.00000271    0.00063517    0.00407219
     atom   20 type  2   force =    -0.00204915   -0.00118058    0.00641799
     atom   21 type  2   force =     0.00054700   -0.00031640    0.00407179
     atom   22 type  2   force =    -0.00021324   -0.00012041    0.00358382
     atom   23 type  2   force =     0.00204361   -0.00118096    0.00641826
     atom   24 type  2   force =    -0.00000245    0.00236408    0.00641810
     atom   25 type  2   force =     0.00020730   -0.00012032    0.00358368
     atom   26 type  2   force =    -0.00000294    0.00024397    0.00358403
     atom   27 type  2   force =    -0.00055181   -0.00031573    0.00407224
     The Hubbard contrib.    to forces
     atom    1 type  1   force =     0.00000000    0.00000000    0.00000000
     atom    2 type  1   force =     0.00000000    0.00000000    0.00000000
     atom    3 type  1   force =     0.00000000    0.00000000    0.00000000
     atom    4 type  1   force =     0.00000000    0.00000000    0.00000000
     atom    5 type  3   force =     0.00000000    0.00000000    0.00000000
     atom    6 type  1   force =     0.00000000    0.00000000    0.00000000
     atom    7 type  1   force =     0.00000000    0.00000000    0.00000000
     atom    8 type  1   force =     0.00000000    0.00000000    0.00000000
     atom    9 type  1   force =     0.00000000    0.00000000    0.00000000
     atom   10 type  2   force =     0.00000000    0.00000000    0.00000000
     atom   11 type  2   force =     0.00000000    0.00000000    0.00000000
     atom   12 type  2   force =     0.00000000    0.00000000    0.00000000
     atom   13 type  2   force =     0.00000000    0.00000000    0.00000000
     atom   14 type  2   force =     0.00000000    0.00000000    0.00000000
     atom   15 type  2   force =     0.00000000    0.00000000    0.00000000
     atom   16 type  2   force =     0.00000000    0.00000000    0.00000000
     atom   17 type  2   force =     0.00000000    0.00000000    0.00000000
     atom   18 type  2   force =     0.00000000    0.00000000    0.00000000
     atom   19 type  2   force =     0.00000000    0.00000000    0.00000000
     atom   20 type  2   force =     0.00000000    0.00000000    0.00000000
     atom   21 type  2   force =     0.00000000    0.00000000    0.00000000
     atom   22 type  2   force =     0.00000000    0.00000000    0.00000000
     atom   23 type  2   force =     0.00000000    0.00000000    0.00000000
     atom   24 type  2   force =     0.00000000    0.00000000    0.00000000
     atom   25 type  2   force =     0.00000000    0.00000000    0.00000000
     atom   26 type  2   force =     0.00000000    0.00000000    0.00000000
     atom   27 type  2   force =     0.00000000    0.00000000    0.00000000
     The SCF correction term to forces
     atom    1 type  1   force =    -0.00093021    0.00011957    0.00000020
     atom    2 type  1   force =    -0.00036157   -0.00086536    0.00000023
     atom    3 type  1   force =     0.00000001    0.00000001    0.00000020
     atom    4 type  1   force =     0.00093023    0.00011955    0.00000019
     atom    5 type  3   force =     0.00000023    0.00000011    0.00000069
     atom    6 type  1   force =     0.00056865    0.00074585    0.00000020
     atom    7 type  1   force =     0.00000002   -0.00000000    0.00000021
     atom    8 type  1   force =     0.00036160   -0.00086534    0.00000022
     atom    9 type  1   force =    -0.00056863    0.00074583    0.00000020
     atom   10 type  2   force =    -0.00000000    0.00011142    0.00121656
     atom   11 type  2   force =    -0.00016665   -0.00009622    0.00142961
     atom   12 type  2   force =     0.00009650   -0.00005571    0.00121656
     atom   13 type  2   force =     0.00017227    0.00009946    0.00132005
     atom   14 type  2   force =     0.00016665   -0.00009622    0.00142961
     atom   15 type  2   force =     0.00000001    0.00019243    0.00142962
     atom   16 type  2   force =    -0.00017226    0.00009946    0.00132003
     atom   17 type  2   force =    -0.00000000   -0.00019892    0.00132003
     atom   18 type  2   force =    -0.00009649   -0.00005571    0.00121655
     atom   19 type  2   force =    -0.00000000    0.00011142   -0.00121653
     atom   20 type  2   force =    -0.00016664   -0.00009621   -0.00142958
     atom   21 type  2   force =     0.00009650   -0.00005571   -0.00121652
     atom   22 type  2   force =     0.00017227    0.00009946   -0.00131998
     atom   23 type  2   force =     0.00016663   -0.00009620   -0.00142959
     atom   24 type  2   force =    -0.00000000    0.00019242   -0.00142958
     atom   25 type  2   force =    -0.00017227    0.00009946   -0.00132001
     atom   26 type  2   force =     0.00000000   -0.00019892   -0.00131998
     atom   27 type  2   force =    -0.00009649   -0.00005571   -0.00121653

     Total force =     0.186915     Total SCF correction =     0.006116


     Computing stress (Cartesian axis) and pressure


     negative rho (up, down):  4.881E-01 0.000E+00
