
     Program PWSCF v.7.4 starts on 12Jun2025 at 15:45:10 

     This program is part of the open-source Quantum ESPRESSO suite
     for quantum simulation of materials; please cite
         "P. Giannozzi et al., J. Phys.:Condens. Matter 21 395502 (2009);
         "P. Giannozzi et al., J. Phys.:Condens. Matter 29 465901 (2017);
         "P. Giannozzi et al., J. Chem. Phys. 152 154105 (2020);
          URL http://www.quantum-espresso.org", 
     in publications or presentations arising from this work. More details at
     http://www.quantum-espresso.org/quote

     Parallel version (MPI), running on     4 processors

     MPI processes distributed on     1 nodes
     131729 MiB available memory on the printing compute node when the environment starts

     Waiting for input...
     Reading input from standard input

     Current dimensions of program PWSCF are:
     Max number of different atomic species (ntypx) = 10
     Max number of k-points (npk) =  40000
     Max angular momentum in pseudopotentials (lmaxx) =  4
     Message from routine setup:
     using ibrav=0 with symmetry is DISCOURAGED, use correct ibrav instead

     R & G space division:  proc/nbgrp/npool/nimage =       4
     Subspace diagonalization in iterative solution of the eigenvalue problem:
     a serial algorithm will be used


     Parallelization info
     --------------------
     sticks:   dense  smooth     PW     G-vecs:    dense   smooth      PW
     Min         136      65     21                 4134     1449     269
     Max         137      67     22                 4139     1453     276
     Sum         547     265     85                16551     5805    1087

     Using Slab Decomposition



     bravais-lattice index     =            0
     lattice parameter (alat)  =       4.6714  a.u.
     unit-cell volume          =     143.6064 (a.u.)^3
     number of atoms/cell      =            2
     number of atomic types    =            1
     number of electrons       =        34.00
     number of Kohn-Sham states=           21
     kinetic-energy cutoff     =      45.0000  Ry
     charge density cutoff     =     360.0000  Ry
     scf convergence threshold =      4.0E-10
     mixing beta               =       0.4000
     number of iterations used =            8  plain     mixing
     Exchange-correlation= SLA  PW   PBE  PBE
                           (   1   4   3   4   0   0   0)

     celldm(1)=   4.671403  celldm(2)=   0.000000  celldm(3)=   0.000000
     celldm(4)=   0.000000  celldm(5)=   0.000000  celldm(6)=   0.000000

     crystal axes: (cart. coord. in units of alat)
               a(1) = (   1.000000   0.000000   0.000000 )  
               a(2) = (  -0.500000   0.866025   0.000000 )  
               a(3) = (   0.000000   0.000000   1.626676 )  

     reciprocal axes: (cart. coord. in units 2 pi/alat)
               b(1) = (  1.000000  0.577350 -0.000000 )  
               b(2) = (  0.000000  1.154701  0.000000 )  
               b(3) = (  0.000000 -0.000000  0.614750 )  


     PseudoPot. # 1 for Co read from file:
     ../pseudo/Co_pbe_v1.2.uspp.F.UPF
     MD5 check sum: 5f91765df6ddd3222702df6e7b74a16d
     Pseudo is Ultrasoft + core correction, Zval = 17.0
     Generated by new atomic code, or converted to UPF format
     Using radial grid of  863 points,  6 beta functions with: 
                l(1) =   0
                l(2) =   0
                l(3) =   1
                l(4) =   1
                l(5) =   2
                l(6) =   2
     Q(r) pseudized with  8 coefficients,  rinner =    1.200   1.200   1.200
                                                       1.200   1.200

     atomic species   valence    mass     pseudopotential
     Co               17.00    58.93319     Co( 1.00)

     Starting magnetic structure 
     atomic species   magnetization
     Co              0.294

     24 Sym. Ops., with inversion, found (12 have fractional translation)


                                    s                        frac. trans.

      isym =  1     identity                                     

 cryst.   s( 1) = (     1          0          0      )
                  (     0          1          0      )
                  (     0          0          1      )

 cart.    s( 1) = (  1.0000000  0.0000000  0.0000000 )
                  (  0.0000000  1.0000000  0.0000000 )
                  (  0.0000000  0.0000000  1.0000000 )


      isym =  2     180 deg rotation - cart. axis [0,0,1]        

 cryst.   s( 2) = (    -1          0          0      )    f =(  0.0000000 )
                  (     0         -1          0      )       (  0.0000000 )
                  (     0          0          1      )       ( -0.5000000 )

 cart.    s( 2) = ( -1.0000000  0.0000000  0.0000000 )    f =(  0.0000000 )
                  (  0.0000000 -1.0000000  0.0000000 )       (  0.0000000 )
                  (  0.0000000  0.0000000  1.0000000 )       ( -0.8133382 )


      isym =  3     180 deg rotation - cart. axis [0,1,0]        

 cryst.   s( 3) = (    -1          0          0      )    f =(  0.0000000 )
                  (     1          1          0      )       (  0.0000000 )
                  (     0          0         -1      )       (  0.5000000 )

 cart.    s( 3) = ( -1.0000000  0.0000000  0.0000000 )    f =(  0.0000000 )
                  (  0.0000000  1.0000000  0.0000000 )       (  0.0000000 )
                  (  0.0000000  0.0000000 -1.0000000 )       (  0.8133382 )


      isym =  4     180 deg rotation - cart. axis [1,0,0]        

 cryst.   s( 4) = (     1          0          0      )
                  (    -1         -1          0      )
                  (     0          0         -1      )

 cart.    s( 4) = (  1.0000000  0.0000000  0.0000000 )
                  (  0.0000000 -1.0000000  0.0000000 )
                  (  0.0000000  0.0000000 -1.0000000 )


      isym =  5      60 deg rotation - cryst. axis [0,0,1]       

 cryst.   s( 5) = (     1          1          0      )    f =(  0.0000000 )
                  (    -1          0          0      )       ( -0.0000000 )
                  (     0          0          1      )       ( -0.5000000 )

 cart.    s( 5) = (  0.5000000 -0.8660254  0.0000000 )    f =(  0.0000000 )
                  (  0.8660254  0.5000000  0.0000000 )       ( -0.0000000 )
                  (  0.0000000  0.0000000  1.0000000 )       ( -0.8133382 )


      isym =  6      60 deg rotation - cryst. axis [0,0,-1]      

 cryst.   s( 6) = (     0         -1          0      )    f =(  0.0000000 )
                  (     1          1          0      )       ( -0.0000000 )
                  (     0          0          1      )       ( -0.5000000 )

 cart.    s( 6) = (  0.5000000  0.8660254  0.0000000 )    f =(  0.0000000 )
                  ( -0.8660254  0.5000000  0.0000000 )       ( -0.0000000 )
                  (  0.0000000  0.0000000  1.0000000 )       ( -0.8133382 )


      isym =  7     120 deg rotation - cryst. axis [0,0,1]       

 cryst.   s( 7) = (     0          1          0      )
                  (    -1         -1          0      )
                  (     0          0          1      )

 cart.    s( 7) = ( -0.5000000 -0.8660254  0.0000000 )
                  (  0.8660254 -0.5000000  0.0000000 )
                  (  0.0000000  0.0000000  1.0000000 )


      isym =  8     120 deg rotation - cryst. axis [0,0,-1]      

 cryst.   s( 8) = (    -1         -1          0      )
                  (     1          0          0      )
                  (     0          0          1      )

 cart.    s( 8) = ( -0.5000000  0.8660254  0.0000000 )
                  ( -0.8660254 -0.5000000  0.0000000 )
                  (  0.0000000  0.0000000  1.0000000 )


      isym =  9     180 deg rotation - cryst. axis [1,-1,0]      

 cryst.   s( 9) = (     0         -1          0      )    f =(  0.0000000 )
                  (    -1          0          0      )       (  0.0000000 )
                  (     0          0         -1      )       (  0.5000000 )

 cart.    s( 9) = (  0.5000000 -0.8660254  0.0000000 )    f =(  0.0000000 )
                  ( -0.8660254 -0.5000000  0.0000000 )       (  0.0000000 )
                  (  0.0000000  0.0000000 -1.0000000 )       (  0.8133382 )


      isym = 10     180 deg rotation - cryst. axis [2,1,0]       

 cryst.   s(10) = (     1          1          0      )    f =(  0.0000000 )
                  (     0         -1          0      )       ( -0.0000000 )
                  (     0          0         -1      )       (  0.5000000 )

 cart.    s(10) = (  0.5000000  0.8660254  0.0000000 )    f =(  0.0000000 )
                  (  0.8660254 -0.5000000  0.0000000 )       ( -0.0000000 )
                  (  0.0000000  0.0000000 -1.0000000 )       (  0.8133382 )


      isym = 11     180 deg rotation - cryst. axis [0,1,0]       

 cryst.   s(11) = (    -1         -1          0      )
                  (     0          1          0      )
                  (     0          0         -1      )

 cart.    s(11) = ( -0.5000000 -0.8660254  0.0000000 )
                  ( -0.8660254  0.5000000  0.0000000 )
                  (  0.0000000  0.0000000 -1.0000000 )


      isym = 12     180 deg rotation - cryst. axis [1,1,0]       

 cryst.   s(12) = (     0          1          0      )
                  (     1          0          0      )
                  (     0          0         -1      )

 cart.    s(12) = ( -0.5000000  0.8660254  0.0000000 )
                  (  0.8660254  0.5000000  0.0000000 )
                  (  0.0000000  0.0000000 -1.0000000 )


      isym = 13     inversion                                    

 cryst.   s(13) = (    -1          0          0      )
                  (     0         -1          0      )
                  (     0          0         -1      )

 cart.    s(13) = ( -1.0000000  0.0000000  0.0000000 )
                  (  0.0000000 -1.0000000  0.0000000 )
                  (  0.0000000  0.0000000 -1.0000000 )


      isym = 14     inv. 180 deg rotation - cart. axis [0,0,1]   

 cryst.   s(14) = (     1          0          0      )    f =(  0.0000000 )
                  (     0          1          0      )       (  0.0000000 )
                  (     0          0         -1      )       (  0.5000000 )

 cart.    s(14) = (  1.0000000  0.0000000  0.0000000 )    f =(  0.0000000 )
                  (  0.0000000  1.0000000  0.0000000 )       (  0.0000000 )
                  (  0.0000000  0.0000000 -1.0000000 )       (  0.8133382 )


      isym = 15     inv. 180 deg rotation - cart. axis [0,1,0]   

 cryst.   s(15) = (     1          0          0      )    f =(  0.0000000 )
                  (    -1         -1          0      )       (  0.0000000 )
                  (     0          0          1      )       ( -0.5000000 )

 cart.    s(15) = (  1.0000000  0.0000000  0.0000000 )    f =(  0.0000000 )
                  (  0.0000000 -1.0000000  0.0000000 )       (  0.0000000 )
                  (  0.0000000  0.0000000  1.0000000 )       ( -0.8133382 )


      isym = 16     inv. 180 deg rotation - cart. axis [1,0,0]   

 cryst.   s(16) = (    -1          0          0      )
                  (     1          1          0      )
                  (     0          0          1      )

 cart.    s(16) = ( -1.0000000  0.0000000  0.0000000 )
                  (  0.0000000  1.0000000  0.0000000 )
                  (  0.0000000  0.0000000  1.0000000 )


      isym = 17     inv.  60 deg rotation - cryst. axis [0,0,1]  

 cryst.   s(17) = (    -1         -1          0      )    f =(  0.0000000 )
                  (     1          0          0      )       (  0.0000000 )
                  (     0          0         -1      )       (  0.5000000 )

 cart.    s(17) = ( -0.5000000  0.8660254  0.0000000 )    f =(  0.0000000 )
                  ( -0.8660254 -0.5000000  0.0000000 )       (  0.0000000 )
                  (  0.0000000  0.0000000 -1.0000000 )       (  0.8133382 )


      isym = 18     inv.  60 deg rotation - cryst. axis [0,0,-1] 

 cryst.   s(18) = (     0          1          0      )    f =(  0.0000000 )
                  (    -1         -1          0      )       ( -0.0000000 )
                  (     0          0         -1      )       (  0.5000000 )

 cart.    s(18) = ( -0.5000000 -0.8660254  0.0000000 )    f =(  0.0000000 )
                  (  0.8660254 -0.5000000  0.0000000 )       ( -0.0000000 )
                  (  0.0000000  0.0000000 -1.0000000 )       (  0.8133382 )


      isym = 19     inv. 120 deg rotation - cryst. axis [0,0,1]  

 cryst.   s(19) = (     0         -1          0      )
                  (     1          1          0      )
                  (     0          0         -1      )

 cart.    s(19) = (  0.5000000  0.8660254  0.0000000 )
                  ( -0.8660254  0.5000000  0.0000000 )
                  (  0.0000000  0.0000000 -1.0000000 )


      isym = 20     inv. 120 deg rotation - cryst. axis [0,0,-1] 

 cryst.   s(20) = (     1          1          0      )
                  (    -1          0          0      )
                  (     0          0         -1      )

 cart.    s(20) = (  0.5000000 -0.8660254  0.0000000 )
                  (  0.8660254  0.5000000  0.0000000 )
                  (  0.0000000  0.0000000 -1.0000000 )


      isym = 21     inv. 180 deg rotation - cryst. axis [1,-1,0] 

 cryst.   s(21) = (     0          1          0      )    f =(  0.0000000 )
                  (     1          0          0      )       ( -0.0000000 )
                  (     0          0          1      )       ( -0.5000000 )

 cart.    s(21) = ( -0.5000000  0.8660254  0.0000000 )    f =(  0.0000000 )
                  (  0.8660254  0.5000000  0.0000000 )       ( -0.0000000 )
                  (  0.0000000  0.0000000  1.0000000 )       ( -0.8133382 )


      isym = 22     inv. 180 deg rotation - cryst. axis [2,1,0]  

 cryst.   s(22) = (    -1         -1          0      )    f =(  0.0000000 )
                  (     0          1          0      )       ( -0.0000000 )
                  (     0          0          1      )       ( -0.5000000 )

 cart.    s(22) = ( -0.5000000 -0.8660254  0.0000000 )    f =(  0.0000000 )
                  ( -0.8660254  0.5000000  0.0000000 )       ( -0.0000000 )
                  (  0.0000000  0.0000000  1.0000000 )       ( -0.8133382 )


      isym = 23     inv. 180 deg rotation - cryst. axis [0,1,0]  

 cryst.   s(23) = (     1          1          0      )
                  (     0         -1          0      )
                  (     0          0          1      )

 cart.    s(23) = (  0.5000000  0.8660254  0.0000000 )
                  (  0.8660254 -0.5000000  0.0000000 )
                  (  0.0000000  0.0000000  1.0000000 )


      isym = 24     inv. 180 deg rotation - cryst. axis [1,1,0]  

 cryst.   s(24) = (     0         -1          0      )
                  (    -1          0          0      )
                  (     0          0          1      )

 cart.    s(24) = (  0.5000000 -0.8660254  0.0000000 )
                  ( -0.8660254 -0.5000000  0.0000000 )
                  (  0.0000000  0.0000000  1.0000000 )


   Cartesian axes

     site n.     atom                  positions (alat units)
         1        Co     tau(   1) = (  -0.0000000   0.5773503   0.4066691  )
         2        Co     tau(   2) = (   0.5000000   0.2886751   1.2200074  )

   Crystallographic axes

     site n.     atom                  positions (cryst. coord.)
         1        Co     tau(   1) = (  0.3333333  0.6666667  0.2500000  )
         2        Co     tau(   2) = (  0.6666667  0.3333333  0.7500000  )

     number of k points=    42  Marzari-Vanderbilt smearing, width (Ry)=  0.0200
                       cart. coord. in units 2pi/alat
        k(    1) = (   0.0000000   0.0000000   0.0000000), wk =   0.0020000
        k(    2) = (   0.0000000   0.0000000   0.1229501), wk =   0.0040000
        k(    3) = (   0.0000000   0.0000000   0.2459002), wk =   0.0040000
        k(    4) = (   0.0000000   0.1154701   0.0000000), wk =   0.0120000
        k(    5) = (   0.0000000   0.1154701   0.1229501), wk =   0.0240000
        k(    6) = (   0.0000000   0.1154701   0.2459002), wk =   0.0240000
        k(    7) = (   0.0000000   0.2309401   0.0000000), wk =   0.0120000
        k(    8) = (   0.0000000   0.2309401   0.1229501), wk =   0.0240000
        k(    9) = (   0.0000000   0.2309401   0.2459002), wk =   0.0240000
        k(   10) = (   0.0000000   0.3464102   0.0000000), wk =   0.0120000
        k(   11) = (   0.0000000   0.3464102   0.1229501), wk =   0.0240000
        k(   12) = (   0.0000000   0.3464102   0.2459002), wk =   0.0240000
        k(   13) = (   0.0000000   0.4618802   0.0000000), wk =   0.0120000
        k(   14) = (   0.0000000   0.4618802   0.1229501), wk =   0.0240000
        k(   15) = (   0.0000000   0.4618802   0.2459002), wk =   0.0240000
        k(   16) = (   0.0000000  -0.5773503   0.0000000), wk =   0.0060000
        k(   17) = (   0.0000000  -0.5773503   0.1229501), wk =   0.0120000
        k(   18) = (   0.0000000  -0.5773503   0.2459002), wk =   0.0120000
        k(   19) = (   0.1000000   0.1732051   0.0000000), wk =   0.0120000
        k(   20) = (   0.1000000   0.1732051   0.1229501), wk =   0.0240000
        k(   21) = (   0.1000000   0.1732051   0.2459002), wk =   0.0240000
        k(   22) = (   0.1000000   0.2886751   0.0000000), wk =   0.0240000
        k(   23) = (   0.1000000   0.2886751   0.1229501), wk =   0.0480000
        k(   24) = (   0.1000000   0.2886751   0.2459002), wk =   0.0480000
        k(   25) = (   0.1000000   0.4041452   0.0000000), wk =   0.0240000
        k(   26) = (   0.1000000   0.4041452   0.1229501), wk =   0.0480000
        k(   27) = (   0.1000000   0.4041452   0.2459002), wk =   0.0480000
        k(   28) = (   0.1000000   0.5196152   0.0000000), wk =   0.0240000
        k(   29) = (   0.1000000   0.5196152   0.1229501), wk =   0.0480000
        k(   30) = (   0.1000000   0.5196152   0.2459002), wk =   0.0480000
        k(   31) = (   0.2000000   0.3464102   0.0000000), wk =   0.0120000
        k(   32) = (   0.2000000   0.3464102   0.1229501), wk =   0.0240000
        k(   33) = (   0.2000000   0.3464102   0.2459002), wk =   0.0240000
        k(   34) = (   0.2000000   0.4618802   0.0000000), wk =   0.0240000
        k(   35) = (   0.2000000   0.4618802   0.1229501), wk =   0.0480000
        k(   36) = (   0.2000000   0.4618802   0.2459002), wk =   0.0480000
        k(   37) = (   0.2000000   0.5773503   0.0000000), wk =   0.0120000
        k(   38) = (   0.2000000   0.5773503   0.1229501), wk =   0.0240000
        k(   39) = (   0.2000000   0.5773503   0.2459002), wk =   0.0240000
        k(   40) = (   0.3000000   0.5196152   0.0000000), wk =   0.0120000
        k(   41) = (   0.3000000   0.5196152   0.1229501), wk =   0.0240000
        k(   42) = (   0.3000000   0.5196152   0.2459002), wk =   0.0240000

                       cryst. coord.
        k(    1) = (   0.0000000   0.0000000   0.0000000), wk =   0.0020000
        k(    2) = (   0.0000000   0.0000000   0.2000000), wk =   0.0040000
        k(    3) = (   0.0000000   0.0000000   0.4000000), wk =   0.0040000
        k(    4) = (   0.0000000   0.1000000   0.0000000), wk =   0.0120000
        k(    5) = (   0.0000000   0.1000000   0.2000000), wk =   0.0240000
        k(    6) = (   0.0000000   0.1000000   0.4000000), wk =   0.0240000
        k(    7) = (   0.0000000   0.2000000   0.0000000), wk =   0.0120000
        k(    8) = (   0.0000000   0.2000000   0.2000000), wk =   0.0240000
        k(    9) = (   0.0000000   0.2000000   0.4000000), wk =   0.0240000
        k(   10) = (   0.0000000   0.3000000   0.0000000), wk =   0.0120000
        k(   11) = (   0.0000000   0.3000000   0.2000000), wk =   0.0240000
        k(   12) = (   0.0000000   0.3000000   0.4000000), wk =   0.0240000
        k(   13) = (   0.0000000   0.4000000   0.0000000), wk =   0.0120000
        k(   14) = (   0.0000000   0.4000000   0.2000000), wk =   0.0240000
        k(   15) = (   0.0000000   0.4000000   0.4000000), wk =   0.0240000
        k(   16) = (   0.0000000  -0.5000000   0.0000000), wk =   0.0060000
        k(   17) = (   0.0000000  -0.5000000   0.2000000), wk =   0.0120000
        k(   18) = (   0.0000000  -0.5000000   0.4000000), wk =   0.0120000
        k(   19) = (   0.1000000   0.1000000   0.0000000), wk =   0.0120000
        k(   20) = (   0.1000000   0.1000000   0.2000000), wk =   0.0240000
        k(   21) = (   0.1000000   0.1000000   0.4000000), wk =   0.0240000
        k(   22) = (   0.1000000   0.2000000   0.0000000), wk =   0.0240000
        k(   23) = (   0.1000000   0.2000000   0.2000000), wk =   0.0480000
        k(   24) = (   0.1000000   0.2000000   0.4000000), wk =   0.0480000
        k(   25) = (   0.1000000   0.3000000   0.0000000), wk =   0.0240000
        k(   26) = (   0.1000000   0.3000000   0.2000000), wk =   0.0480000
        k(   27) = (   0.1000000   0.3000000   0.4000000), wk =   0.0480000
        k(   28) = (   0.1000000   0.4000000   0.0000000), wk =   0.0240000
        k(   29) = (   0.1000000   0.4000000   0.2000000), wk =   0.0480000
        k(   30) = (   0.1000000   0.4000000   0.4000000), wk =   0.0480000
        k(   31) = (   0.2000000   0.2000000   0.0000000), wk =   0.0120000
        k(   32) = (   0.2000000   0.2000000   0.2000000), wk =   0.0240000
        k(   33) = (   0.2000000   0.2000000   0.4000000), wk =   0.0240000
        k(   34) = (   0.2000000   0.3000000   0.0000000), wk =   0.0240000
        k(   35) = (   0.2000000   0.3000000   0.2000000), wk =   0.0480000
        k(   36) = (   0.2000000   0.3000000   0.4000000), wk =   0.0480000
        k(   37) = (   0.2000000   0.4000000   0.0000000), wk =   0.0120000
        k(   38) = (   0.2000000   0.4000000   0.2000000), wk =   0.0240000
        k(   39) = (   0.2000000   0.4000000   0.4000000), wk =   0.0240000
        k(   40) = (   0.3000000   0.3000000   0.0000000), wk =   0.0120000
        k(   41) = (   0.3000000   0.3000000   0.2000000), wk =   0.0240000
        k(   42) = (   0.3000000   0.3000000   0.4000000), wk =   0.0240000

     Dense  grid:    16551 G-vectors     FFT dimensions: (  30,  30,  48)

     Smooth grid:     5805 G-vectors     FFT dimensions: (  20,  20,  36)

     Dynamical RAM for                 wfc:       0.06 MB

     Dynamical RAM for     wfc (w. buffer):       4.98 MB

     Dynamical RAM for           str. fact:       0.06 MB

     Dynamical RAM for           local pot:       0.00 MB

     Dynamical RAM for          nlocal pot:       0.10 MB

     Dynamical RAM for                qrad:       1.52 MB

     Dynamical RAM for          rho,v,vnew:       0.87 MB

     Dynamical RAM for               rhoin:       0.29 MB

     Dynamical RAM for            rho*nmix:       2.02 MB

     Dynamical RAM for           G-vectors:       0.25 MB

     Dynamical RAM for          h,s,v(r/c):       0.08 MB

     Dynamical RAM for          <psi|beta>:       0.01 MB

     Dynamical RAM for                 psi:       0.12 MB

     Dynamical RAM for                hpsi:       0.12 MB

     Dynamical RAM for                spsi:       0.12 MB

     Dynamical RAM for      wfcinit/wfcrot:       0.13 MB

     Dynamical RAM for           addusdens:      11.94 MB

     Dynamical RAM for          addusforce:      12.08 MB

     Dynamical RAM for         addusstress:      12.79 MB

     Estimated static dynamical RAM per process >       8.70 MB

     Estimated max dynamical RAM per process >      23.51 MB

     Estimated total dynamical RAM >      94.06 MB

     Check: negative core charge=   -0.000020
     Generating pointlists ...
     new r_m :   0.4114 (alat units)  1.9220 (a.u.) for type    1

     Initial potential from superposition of free atoms

     starting charge      32.0000, renormalised to      34.0000
     Starting wfcs are   26 randomized atomic wfcs

     total cpu time spent up to now is        1.7 secs

     Self-consistent Calculation

     iteration #  1     ecut=    45.00 Ry     beta= 0.40
     Davidson diagonalization with overlap

---- Real-time Memory Report at c_bands before calling an iterative solver
            32 MiB given to the printing process from OS
             0 MiB allocation reported by mallinfo(arena+hblkhd)
        131371 MiB available memory on the node where the printing process lives
------------------
     ethr =  1.00E-02,  avg # of iterations =  2.4

     total cpu time spent up to now is        4.8 secs

     total energy              =    -592.92185229 Ry
     estimated scf accuracy    <      13.35359872 Ry

     total magnetization       =     4.26 Bohr mag/cell
     absolute magnetization    =     4.43 Bohr mag/cell

     iteration #  2     ecut=    45.00 Ry     beta= 0.40
     Davidson diagonalization with overlap

---- Real-time Memory Report at c_bands before calling an iterative solver
            39 MiB given to the printing process from OS
             0 MiB allocation reported by mallinfo(arena+hblkhd)
        131323 MiB available memory on the node where the printing process lives
------------------
     ethr =  1.00E-02,  avg # of iterations =  3.1

     total cpu time spent up to now is        8.4 secs

     total energy              =    -596.23080251 Ry
     estimated scf accuracy    <       3.81789094 Ry

     total magnetization       =     3.14 Bohr mag/cell
     absolute magnetization    =     3.55 Bohr mag/cell

     iteration #  3     ecut=    45.00 Ry     beta= 0.40
     Davidson diagonalization with overlap

---- Real-time Memory Report at c_bands before calling an iterative solver
            39 MiB given to the printing process from OS
             0 MiB allocation reported by mallinfo(arena+hblkhd)
        131323 MiB available memory on the node where the printing process lives
------------------
     ethr =  1.00E-02,  avg # of iterations =  2.0

     total cpu time spent up to now is       11.1 secs

     total energy              =    -596.94884859 Ry
     estimated scf accuracy    <       0.12486027 Ry

     total magnetization       =     3.92 Bohr mag/cell
     absolute magnetization    =     4.32 Bohr mag/cell

     iteration #  4     ecut=    45.00 Ry     beta= 0.40
     Davidson diagonalization with overlap

---- Real-time Memory Report at c_bands before calling an iterative solver
            39 MiB given to the printing process from OS
             0 MiB allocation reported by mallinfo(arena+hblkhd)
        131323 MiB available memory on the node where the printing process lives
------------------
     ethr =  3.67E-04,  avg # of iterations =  1.7

     total cpu time spent up to now is       13.4 secs

     total energy              =    -596.97492378 Ry
     estimated scf accuracy    <       0.03003984 Ry

     total magnetization       =     3.51 Bohr mag/cell
     absolute magnetization    =     3.95 Bohr mag/cell

     iteration #  5     ecut=    45.00 Ry     beta= 0.40
     Davidson diagonalization with overlap

---- Real-time Memory Report at c_bands before calling an iterative solver
            39 MiB given to the printing process from OS
             0 MiB allocation reported by mallinfo(arena+hblkhd)
        131324 MiB available memory on the node where the printing process lives
------------------
     ethr =  8.84E-05,  avg # of iterations =  1.5

     total cpu time spent up to now is       15.7 secs

     total energy              =    -596.97641448 Ry
     estimated scf accuracy    <       0.00777511 Ry

     total magnetization       =     3.44 Bohr mag/cell
     absolute magnetization    =     3.85 Bohr mag/cell

     iteration #  6     ecut=    45.00 Ry     beta= 0.40
     Davidson diagonalization with overlap

---- Real-time Memory Report at c_bands before calling an iterative solver
            39 MiB given to the printing process from OS
             0 MiB allocation reported by mallinfo(arena+hblkhd)
        131324 MiB available memory on the node where the printing process lives
------------------
     ethr =  2.29E-05,  avg # of iterations =  1.8

     total cpu time spent up to now is       18.1 secs

     total energy              =    -596.97759427 Ry
     estimated scf accuracy    <       0.00016960 Ry

     total magnetization       =     3.38 Bohr mag/cell
     absolute magnetization    =     3.75 Bohr mag/cell

     iteration #  7     ecut=    45.00 Ry     beta= 0.40
     Davidson diagonalization with overlap

---- Real-time Memory Report at c_bands before calling an iterative solver
            39 MiB given to the printing process from OS
             0 MiB allocation reported by mallinfo(arena+hblkhd)
        131324 MiB available memory on the node where the printing process lives
------------------
     ethr =  4.99E-07,  avg # of iterations =  2.6

     total cpu time spent up to now is       20.7 secs

     total energy              =    -596.97764486 Ry
     estimated scf accuracy    <       0.00008086 Ry

     total magnetization       =     3.37 Bohr mag/cell
     absolute magnetization    =     3.73 Bohr mag/cell

     iteration #  8     ecut=    45.00 Ry     beta= 0.40
     Davidson diagonalization with overlap

---- Real-time Memory Report at c_bands before calling an iterative solver
            39 MiB given to the printing process from OS
             0 MiB allocation reported by mallinfo(arena+hblkhd)
        131324 MiB available memory on the node where the printing process lives
------------------
     ethr =  2.38E-07,  avg # of iterations =  2.0

     total cpu time spent up to now is       23.3 secs

     total energy              =    -596.97765917 Ry
     estimated scf accuracy    <       0.00001412 Ry

     total magnetization       =     3.36 Bohr mag/cell
     absolute magnetization    =     3.71 Bohr mag/cell

     iteration #  9     ecut=    45.00 Ry     beta= 0.40
     Davidson diagonalization with overlap

---- Real-time Memory Report at c_bands before calling an iterative solver
            40 MiB given to the printing process from OS
             0 MiB allocation reported by mallinfo(arena+hblkhd)
        131323 MiB available memory on the node where the printing process lives
------------------
     ethr =  4.15E-08,  avg # of iterations =  1.8

     total cpu time spent up to now is       25.7 secs

     total energy              =    -596.97766169 Ry
     estimated scf accuracy    <       0.00000172 Ry

     total magnetization       =     3.36 Bohr mag/cell
     absolute magnetization    =     3.71 Bohr mag/cell

     iteration # 10     ecut=    45.00 Ry     beta= 0.40
     Davidson diagonalization with overlap

---- Real-time Memory Report at c_bands before calling an iterative solver
            40 MiB given to the printing process from OS
             0 MiB allocation reported by mallinfo(arena+hblkhd)
        130498 MiB available memory on the node where the printing process lives
------------------
     ethr =  5.07E-09,  avg # of iterations =  2.5

     total cpu time spent up to now is       28.5 secs

     total energy              =    -596.97766294 Ry
     estimated scf accuracy    <       0.00000010 Ry

     total magnetization       =     3.36 Bohr mag/cell
     absolute magnetization    =     3.70 Bohr mag/cell

     iteration # 11     ecut=    45.00 Ry     beta= 0.40
     Davidson diagonalization with overlap

---- Real-time Memory Report at c_bands before calling an iterative solver
            40 MiB given to the printing process from OS
             0 MiB allocation reported by mallinfo(arena+hblkhd)
        130498 MiB available memory on the node where the printing process lives
------------------
     ethr =  2.91E-10,  avg # of iterations =  2.2

     total cpu time spent up to now is       31.2 secs

     total energy              =    -596.97766304 Ry
     estimated scf accuracy    <       0.00000013 Ry

     total magnetization       =     3.36 Bohr mag/cell
     absolute magnetization    =     3.71 Bohr mag/cell

     iteration # 12     ecut=    45.00 Ry     beta= 0.40
     Davidson diagonalization with overlap

---- Real-time Memory Report at c_bands before calling an iterative solver
            40 MiB given to the printing process from OS
             0 MiB allocation reported by mallinfo(arena+hblkhd)
        132139 MiB available memory on the node where the printing process lives
------------------
     ethr =  2.91E-10,  avg # of iterations =  1.8

     Magnetic moment per site  (integrated on atomic sphere of radius R)
     atom   1 (R=0.411)  charge= 15.5822  magn=  1.7587
     atom   2 (R=0.411)  charge= 15.5822  magn=  1.7587

     total cpu time spent up to now is       33.6 secs

     End of self-consistent calculation

 ------ SPIN UP ------------


          k = 0.0000 0.0000 0.0000 (   713 PWs)   bands (ev):

   -77.3910 -77.3313 -40.7837 -40.4786 -40.4786 -40.4401 -40.4296 -40.4296
     9.7440  13.5416  16.1085  16.1680  16.1680  16.4839  16.4839  16.8620
    16.8620  17.9767  17.9767  18.6270  25.2152

     occupation numbers 
     1.0000   1.0000   1.0000   1.0000   1.0000   1.0000   1.0000   1.0000
     1.0000   1.0000   1.0000   1.0000   1.0000   1.0000   1.0000   1.0000
     1.0000   1.0002   1.0002   1.0248   0.0000

          k = 0.0000 0.0000 0.1230 (   718 PWs)   bands (ev):

   -77.3853 -77.3370 -40.7514 -40.4739 -40.4739 -40.4734 -40.4343 -40.4343
    10.1470  13.4353  16.0088  16.0885  16.0885  16.3819  16.3819  17.0830
    17.0830  17.3416  17.9485  17.9485  27.3184

     occupation numbers 
     1.0000   1.0000   1.0000   1.0000   1.0000   1.0000   1.0000   1.0000
     1.0000   1.0000   1.0000   1.0000   1.0000   1.0000   1.0000   1.0000
     1.0000   1.0000   1.0001   1.0001   0.0000

          k = 0.0000 0.0000 0.2459 (   718 PWs)   bands (ev):

   -77.3704 -77.3519 -40.6663 -40.5600 -40.4617 -40.4617 -40.4465 -40.4465
    11.2702  12.6921  15.8180  15.9862  16.0591  16.0591  16.1834  16.1834
    17.4794  17.4794  17.7985  17.7985  31.4857

     occupation numbers 
     1.0000   1.0000   1.0000   1.0000   1.0000   1.0000   1.0000   1.0000
     1.0000   1.0000   1.0000   1.0000   1.0000   1.0000   1.0000   1.0000
     1.0000   1.0000   1.0000   1.0000   0.0000

          k = 0.0000 0.1155 0.0000 (   725 PWs)   bands (ev):

   -77.3860 -77.3289 -40.7730 -40.5028 -40.4864 -40.4547 -40.4445 -40.4338
    10.0999  13.7546  15.8618  16.3359  16.3446  16.4340  16.5874  16.6329
    16.7593  17.0411  18.0187  20.0738  25.2755

     occupation numbers 
     1.0000   1.0000   1.0000   1.0000   1.0000   1.0000   1.0000   1.0000
     1.0000   1.0000   1.0000   1.0000   1.0000   1.0000   1.0000   1.0000
     1.0000   1.0000   1.0005   0.0000   0.0000

          k = 0.0000 0.1155 0.1230 (   726 PWs)   bands (ev):

   -77.3806 -77.3344 -40.7433 -40.4972 -40.4869 -40.4814 -40.4483 -40.4388
    10.4935  13.6779  15.8768  16.0739  16.1113  16.2272  16.5214  16.6806
    17.0275  17.0923  17.9760  18.9859  27.4999

     occupation numbers 
     1.0000   1.0000   1.0000   1.0000   1.0000   1.0000   1.0000   1.0000
     1.0000   1.0000   1.0000   1.0000   1.0000   1.0000   1.0000   1.0000
     1.0000   1.0000   1.0002   0.2094   0.0000

          k = 0.0000 0.1155 0.2459 (   716 PWs)   bands (ev):

   -77.3663 -77.3487 -40.6650 -40.5674 -40.4816 -40.4682 -40.4629 -40.4519
    11.5895  12.9786  15.6073  15.7317  15.9913  16.1925  16.2736  16.3210
    17.4508  17.5403  17.7966  18.0695  31.7228

     occupation numbers 
     1.0000   1.0000   1.0000   1.0000   1.0000   1.0000   1.0000   1.0000
     1.0000   1.0000   1.0000   1.0000   1.0000   1.0000   1.0000   1.0000
     1.0000   1.0000   1.0000   1.0012   0.0000

          k = 0.0000 0.2309 0.0000 (   725 PWs)   bands (ev):

   -77.3727 -77.3231 -40.7429 -40.5664 -40.5192 -40.5062 -40.4577 -40.4450
    11.1073  14.2165  15.5474  15.6227  16.1902  16.5229  16.7140  16.7903
    16.7970  17.0383  18.0974  22.0977  25.4984

     occupation numbers 
     1.0000   1.0000   1.0000   1.0000   1.0000   1.0000   1.0000   1.0000
     1.0000   1.0000   1.0000   1.0000   1.0000   1.0000   1.0000   1.0000
     1.0000   1.0000   1.0019   0.0000   0.0000

          k = 0.0000 0.2309 0.1230 (   729 PWs)   bands (ev):

   -77.3680 -77.3278 -40.7227 -40.5573 -40.5404 -40.5004 -40.4663 -40.4509
    11.4607  14.2275  15.3254  15.6159  16.0133  16.4597  16.5037  16.8845
    17.0728  17.1538  18.0264  20.3897  28.0855

     occupation numbers 
     1.0000   1.0000   1.0000   1.0000   1.0000   1.0000   1.0000   1.0000
     1.0000   1.0000   1.0000   1.0000   1.0000   1.0000   1.0000   1.0000
     1.0000   1.0000   1.0006   0.0000   0.0000

          k = 0.0000 0.2309 0.2459 (   725 PWs)   bands (ev):

   -77.3556 -77.3403 -40.6689 -40.6011 -40.5256 -40.4919 -40.4851 -40.4662
    12.4312  13.6519  15.1777  15.5543  15.8773  16.2226  16.5001  16.6828
    17.4415  17.7313  17.7995  18.6823  32.3880

     occupation numbers 
     1.0000   1.0000   1.0000   1.0000   1.0000   1.0000   1.0000   1.0000
     1.0000   1.0000   1.0000   1.0000   1.0000   1.0000   1.0000   1.0000
     1.0000   1.0000   1.0000   0.9430   0.0000

          k = 0.0000 0.3464 0.0000 (   729 PWs)   bands (ev):

   -77.3553 -77.3168 -40.7003 -40.6458 -40.5973 -40.5300 -40.4796 -40.4596
    12.5092  14.3461  14.8480  15.5242  16.1964  16.2699  16.4716  17.4125
    17.4701  17.5775  18.1584  24.3875  25.8524

     occupation numbers 
     1.0000   1.0000   1.0000   1.0000   1.0000   1.0000   1.0000   1.0000
     1.0000   1.0000   1.0000   1.0000   1.0000   1.0000   1.0000   1.0000
     1.0000   1.0000   1.0048   0.0000   0.0000

          k = 0.0000 0.3464 0.1230 (   725 PWs)   bands (ev):

   -77.3516 -77.3205 -40.7082 -40.6263 -40.6045 -40.5233 -40.4839 -40.4663
    12.7301  14.3964  14.7836  15.4896  16.0518  16.3828  16.7164  17.4193
    17.4870  17.5037  18.0751  21.8471  28.8604

     occupation numbers 
     1.0000   1.0000   1.0000   1.0000   1.0000   1.0000   1.0000   1.0000
     1.0000   1.0000   1.0000   1.0000   1.0000   1.0000   1.0000   1.0000
     1.0000   1.0000   1.0013   0.0000   0.0000

          k = 0.0000 0.3464 0.2459 (   733 PWs)   bands (ev):

   -77.3420 -77.3301 -40.6988 -40.6642 -40.5533 -40.5070 -40.5057 -40.4839
    13.3009  13.9934  14.9879  15.3594  16.2159  16.6384  16.6899  17.0929
    17.6588  17.8789  18.0284  19.4810  30.8159

     occupation numbers 
     1.0000   1.0000   1.0000   1.0000   1.0000   1.0000   1.0000   1.0000
     1.0000   1.0000   1.0000   1.0000   1.0000   1.0000   1.0000   1.0000
     1.0000   1.0000   1.0006   0.0001   0.0000

          k = 0.0000 0.4619 0.0000 (   724 PWs)   bands (ev):

   -77.3396 -77.3134 -40.7105 -40.6592 -40.6563 -40.5488 -40.5065 -40.4717
    13.6034  14.1242  14.3824  15.9020  16.0849  16.2877  16.4540  17.9375
    18.0714  18.1903  18.6829  24.4557  26.8408

     occupation numbers 
     1.0000   1.0000   1.0000   1.0000   1.0000   1.0000   1.0000   1.0000
     1.0000   1.0000   1.0000   1.0000   1.0000   1.0000   1.0000   1.0001
     1.0013   1.0074   0.9419   0.0000   0.0000

          k = 0.0000 0.4619 0.1230 (   725 PWs)   bands (ev):

   -77.3371 -77.3159 -40.7342 -40.6827 -40.6116 -40.5414 -40.5039 -40.4791
    13.5110  14.1260  14.7196  15.2710  16.2455  16.4675  17.2604  17.8327
    17.9699  18.1726  18.4648  22.8957  26.6713

     occupation numbers 
     1.0000   1.0000   1.0000   1.0000   1.0000   1.0000   1.0000   1.0000
     1.0000   1.0000   1.0000   1.0000   1.0000   1.0000   1.0000   1.0000
     1.0002   1.0059   1.0771   0.0000   0.0000

          k = 0.0000 0.4619 0.2459 (   737 PWs)   bands (ev):

   -77.3305 -77.3224 -40.7436 -40.7214 -40.5529 -40.5222 -40.5143 -40.4984
    13.5840  13.9223  14.8793  15.1453  16.6884  16.9362  17.2901  17.8153
    18.0316  18.1107  18.6736  20.5420  27.3856

     occupation numbers 
     1.0000   1.0000   1.0000   1.0000   1.0000   1.0000   1.0000   1.0000
     1.0000   1.0000   1.0000   1.0000   1.0000   1.0000   1.0000   1.0000
     1.0006   1.0024   0.9583   0.0000   0.0000

          k = 0.0000-0.5774 0.0000 (   732 PWs)   bands (ev):

   -77.3326 -77.3130 -40.7354 -40.6825 -40.6340 -40.5559 -40.5224 -40.4765
    13.9318  13.9654  14.2279  16.0175  16.2188  16.2504  16.5663  18.1362
    18.1996  18.2858  20.1556  22.2173  28.5744

     occupation numbers 
     1.0000   1.0000   1.0000   1.0000   1.0000   1.0000   1.0000   1.0000
     1.0000   1.0000   1.0000   1.0000   1.0000   1.0000   1.0000   1.0035
     1.0084   1.0225   0.0000   0.0000   0.0000

          k = 0.0000-0.5774 0.1230 (   732 PWs)   bands (ev):

   -77.3307 -77.3149 -40.7533 -40.7051 -40.6003 -40.5483 -40.5155 -40.4841
    13.6269  13.9983  14.8000  15.1767  16.1905  16.6066  17.5640  17.9177
    18.1812  18.2747  19.8658  21.9541  27.4473

     occupation numbers 
     1.0000   1.0000   1.0000   1.0000   1.0000   1.0000   1.0000   1.0000
     1.0000   1.0000   1.0000   1.0000   1.0000   1.0000   1.0000   1.0001
     1.0066   1.0201   0.0000   0.0000   0.0000

          k = 0.0000-0.5774 0.2459 (   738 PWs)   bands (ev):

   -77.3258 -77.3198 -40.7637 -40.7438 -40.5487 -40.5285 -40.5177 -40.5039
    13.5852  13.8740  14.8453  15.0516  16.6695  17.2015  17.3237  18.1765
    18.2089  18.2454  19.8250  21.0604  26.3744

     occupation numbers 
     1.0000   1.0000   1.0000   1.0000   1.0000   1.0000   1.0000   1.0000
     1.0000   1.0000   1.0000   1.0000   1.0000   1.0000   1.0000   1.0062
     1.0094   1.0146   0.0000   0.0000   0.0000

          k = 0.1000 0.1732 0.0000 (   729 PWs)   bands (ev):

   -77.3769 -77.3248 -40.7526 -40.5414 -40.5169 -40.4840 -40.4533 -40.4454
    10.7845  14.1114  15.5838  15.9106  16.2739  16.4740  16.5585  16.6788
    16.8797  16.9693  18.0597  21.5314  25.4235

     occupation numbers 
     1.0000   1.0000   1.0000   1.0000   1.0000   1.0000   1.0000   1.0000
     1.0000   1.0000   1.0000   1.0000   1.0000   1.0000   1.0000   1.0000
     1.0000   1.0000   1.0010   0.0000   0.0000

          k = 0.1000 0.1732 0.1230 (   730 PWs)   bands (ev):

   -77.3719 -77.3298 -40.7287 -40.5329 -40.5281 -40.4945 -40.4592 -40.4508
    11.1543  14.0968  15.5289  15.6377  16.0952  16.3797  16.4834  16.7523
    17.0899  17.1084  18.0057  20.0130  27.8902

     occupation numbers 
     1.0000   1.0000   1.0000   1.0000   1.0000   1.0000   1.0000   1.0000
     1.0000   1.0000   1.0000   1.0000   1.0000   1.0000   1.0000   1.0000
     1.0000   1.0000   1.0004   0.0000   0.0000

          k = 0.1000 0.1732 0.2459 (   721 PWs)   bands (ev):

   -77.3589 -77.3429 -40.6659 -40.5878 -40.5111 -40.4918 -40.4738 -40.4645
    12.1780  13.4775  15.2701  15.6096  15.8571  16.1761  16.4413  16.5846
    17.4649  17.6306  17.8246  18.5040  32.1895

     occupation numbers 
     1.0000   1.0000   1.0000   1.0000   1.0000   1.0000   1.0000   1.0000
     1.0000   1.0000   1.0000   1.0000   1.0000   1.0000   1.0000   1.0000
     1.0000   1.0000   1.0000   1.0831   0.0000

          k = 0.1000 0.2887 0.0000 (   729 PWs)   bands (ev):

   -77.3615 -77.3188 -40.7160 -40.6070 -40.5778 -40.5168 -40.4710 -40.4637
    12.0208  14.4948  15.1328  15.3013  16.1750  16.1969  16.6837  16.9135
    17.2672  17.5862  18.1014  23.5703  25.8028

     occupation numbers 
     1.0000   1.0000   1.0000   1.0000   1.0000   1.0000   1.0000   1.0000
     1.0000   1.0000   1.0000   1.0000   1.0000   1.0000   1.0000   1.0000
     1.0000   1.0000   1.0021   0.0000   0.0000

          k = 0.1000 0.2887 0.1230 (   725 PWs)   bands (ev):

   -77.3574 -77.3229 -40.7084 -40.5986 -40.5820 -40.5198 -40.4759 -40.4678
    12.3148  14.5829  14.9129  15.3916  15.9640  16.3452  16.5257  17.0427
    17.4390  17.4797  18.0724  21.3733  28.7222

     occupation numbers 
     1.0000   1.0000   1.0000   1.0000   1.0000   1.0000   1.0000   1.0000
     1.0000   1.0000   1.0000   1.0000   1.0000   1.0000   1.0000   1.0000
     1.0000   1.0000   1.0013   0.0000   0.0000

          k = 0.1000 0.2887 0.2459 (   727 PWs)   bands (ev):

   -77.3468 -77.3336 -40.6811 -40.6369 -40.5448 -40.5173 -40.4906 -40.4821
    13.0960  14.0513  15.0700  15.4693  15.7884  16.1077  16.6520  16.9721
    17.6706  17.8160  18.0267  19.2208  32.7428

     occupation numbers 
     1.0000   1.0000   1.0000   1.0000   1.0000   1.0000   1.0000   1.0000
     1.0000   1.0000   1.0000   1.0000   1.0000   1.0000   1.0000   1.0000
     1.0000   1.0000   1.0006   0.0146   0.0000

          k = 0.1000 0.4041 0.0000 (   730 PWs)   bands (ev):

   -77.3447 -77.3142 -40.6777 -40.6716 -40.6353 -40.5482 -40.4965 -40.4808
    13.3658  14.3762  14.5803  15.4498  16.0183  16.3418  16.4247  17.4829
    17.8449  18.1296  18.4717  25.8747  25.9203

     occupation numbers 
     1.0000   1.0000   1.0000   1.0000   1.0000   1.0000   1.0000   1.0000
     1.0000   1.0000   1.0000   1.0000   1.0000   1.0000   1.0000   1.0000
     1.0000   1.0032   1.0786   0.0000   0.0000

          k = 0.1000 0.4041 0.1230 (   739 PWs)   bands (ev):

   -77.3418 -77.3171 -40.7121 -40.6599 -40.6115 -40.5451 -40.4988 -40.4826
    13.4342  14.4182  14.6614  15.3522  16.0518  16.4185  16.6502  17.4561
    17.8428  17.9530  18.5330  22.8363  27.9811

     occupation numbers 
     1.0000   1.0000   1.0000   1.0000   1.0000   1.0000   1.0000   1.0000
     1.0000   1.0000   1.0000   1.0000   1.0000   1.0000   1.0000   1.0000
     1.0000   1.0001   1.0818   0.0000   0.0000

          k = 0.1000 0.4041 0.2459 (   733 PWs)   bands (ev):

   -77.3342 -77.3247 -40.7187 -40.6950 -40.5595 -40.5338 -40.5099 -40.4930
    13.6845  14.1028  14.9714  15.3379  16.2099  16.5501  16.8499  17.1689
    17.9082  18.1372  18.7915  20.3208  29.1153

     occupation numbers 
     1.0000   1.0000   1.0000   1.0000   1.0000   1.0000   1.0000   1.0000
     1.0000   1.0000   1.0000   1.0000   1.0000   1.0000   1.0000   1.0000
     1.0001   1.0036   0.6869   0.0000   0.0000

          k = 0.1000 0.5196 0.0000 (   730 PWs)   bands (ev):

   -77.3326 -77.3130 -40.7220 -40.6706 -40.6343 -40.5669 -40.5221 -40.4913
    14.0120  14.1650  14.3015  15.9041  15.9630  16.2192  16.5614  18.0184
    18.1412  18.1473  19.9528  23.2908  28.3111

     occupation numbers 
     1.0000   1.0000   1.0000   1.0000   1.0000   1.0000   1.0000   1.0000
     1.0000   1.0000   1.0000   1.0000   1.0000   1.0000   1.0000   1.0005
     1.0038   1.0041   0.0000   0.0000   0.0000

          k = 0.1000 0.5196 0.1230 (   729 PWs)   bands (ev):

   -77.3308 -77.3149 -40.7400 -40.6938 -40.6043 -40.5560 -40.5197 -40.4931
    13.7580  14.1930  14.8307  15.1915  16.0031  16.6745  17.0196  17.8308
    18.0281  18.2120  19.9247  22.8464  26.7922

     occupation numbers 
     1.0000   1.0000   1.0000   1.0000   1.0000   1.0000   1.0000   1.0000
     1.0000   1.0000   1.0000   1.0000   1.0000   1.0000   1.0000   1.0000
     1.0006   1.0098   0.0000   0.0000   0.0000

          k = 0.1000 0.5196 0.2459 (   738 PWs)   bands (ev):

   -77.3259 -77.3198 -40.7508 -40.7317 -40.5657 -40.5382 -40.5217 -40.4986
    13.7458  14.0493  14.9051  15.1929  16.3106  17.0364  17.1850  17.5417
    18.0321  18.2421  20.2762  21.5192  26.4866

     occupation numbers 
     1.0000   1.0000   1.0000   1.0000   1.0000   1.0000   1.0000   1.0000
     1.0000   1.0000   1.0000   1.0000   1.0000   1.0000   1.0000   1.0000
     1.0006   1.0140   0.0000   0.0000   0.0000

          k = 0.2000 0.3464 0.0000 (   733 PWs)   bands (ev):

   -77.3466 -77.3146 -40.6770 -40.6426 -40.6402 -40.5438 -40.4970 -40.4931
    13.2967  14.7083  14.7778  14.9501  15.9168  16.3064  16.5225  17.1191
    17.8477  18.0702  18.5092  25.6145  26.4484

     occupation numbers 
     1.0000   1.0000   1.0000   1.0000   1.0000   1.0000   1.0000   1.0000
     1.0000   1.0000   1.0000   1.0000   1.0000   1.0000   1.0000   1.0000
     1.0000   1.0012   1.0833   0.0000   0.0000

          k = 0.2000 0.3464 0.1230 (   736 PWs)   bands (ev):

   -77.3436 -77.3176 -40.6984 -40.6521 -40.6003 -40.5545 -40.5026 -40.4859
    13.4523  14.5540  15.0006  15.0278  15.9890  16.2335  16.4119  17.2216
    17.7701  17.9789  18.6432  22.7998  29.6782

     occupation numbers 
     1.0000   1.0000   1.0000   1.0000   1.0000   1.0000   1.0000   1.0000
     1.0000   1.0000   1.0000   1.0000   1.0000   1.0000   1.0000   1.0000
     1.0000   1.0002   1.0048   0.0000   0.0000

          k = 0.2000 0.3464 0.2459 (   732 PWs)   bands (ev):

   -77.3355 -77.3256 -40.7025 -40.6799 -40.5564 -40.5546 -40.5089 -40.4915
    13.8366  14.2630  15.2812  15.3309  15.8720  15.8772  16.5955  17.0739
    17.9361  18.1498  18.9363  20.3256  31.2807

     occupation numbers 
     1.0000   1.0000   1.0000   1.0000   1.0000   1.0000   1.0000   1.0000
     1.0000   1.0000   1.0000   1.0000   1.0000   1.0000   1.0000   1.0000
     1.0001   1.0043   0.3081   0.0000   0.0000

          k = 0.2000 0.4619 0.0000 (   739 PWs)   bands (ev):

   -77.3327 -77.3130 -40.6901 -40.6557 -40.6348 -40.5814 -40.5243 -40.5217
    14.2761  14.4402  14.5749  15.2027  15.8226  16.2561  16.5613  17.5213
    18.0434  18.1452  19.9154  25.4915  28.2074

     occupation numbers 
     1.0000   1.0000   1.0000   1.0000   1.0000   1.0000   1.0000   1.0000
     1.0000   1.0000   1.0000   1.0000   1.0000   1.0000   1.0000   1.0000
     1.0008   1.0040   0.0000   0.0000   0.0000

          k = 0.2000 0.4619 0.1230 (   736 PWs)   bands (ev):

   -77.3308 -77.3148 -40.7082 -40.6813 -40.6047 -40.5776 -40.5327 -40.5032
    14.1278  14.5921  14.7033  15.2059  15.9098  16.2350  16.6201  17.5402
    17.7715  18.2325  20.0772  24.2382  27.0915

     occupation numbers 
     1.0000   1.0000   1.0000   1.0000   1.0000   1.0000   1.0000   1.0000
     1.0000   1.0000   1.0000   1.0000   1.0000   1.0000   1.0000   1.0000
     1.0000   1.0125   0.0000   0.0000   0.0000

          k = 0.2000 0.4619 0.2459 (   740 PWs)   bands (ev):

   -77.3259 -77.3198 -40.7232 -40.7098 -40.5907 -40.5703 -40.5173 -40.4962
    14.1474  14.3687  15.0726  15.5111  15.7650  16.2048  16.7764  17.1067
    17.9711  18.2745  20.6553  22.0738  27.8922

     occupation numbers 
     1.0000   1.0000   1.0000   1.0000   1.0000   1.0000   1.0000   1.0000
     1.0000   1.0000   1.0000   1.0000   1.0000   1.0000   1.0000   1.0000
     1.0002   1.0200   0.0000   0.0000   0.0000

          k = 0.2000 0.5774 0.0000 (   739 PWs)   bands (ev):

   -77.3259 -77.3138 -40.7077 -40.6556 -40.6102 -40.6028 -40.5410 -40.5341
    14.3502  14.4567  14.4777  15.5100  15.8590  16.0814  16.6885  17.8805
    18.0333  18.0846  21.6158  23.0414  28.2246

     occupation numbers 
     1.0000   1.0000   1.0000   1.0000   1.0000   1.0000   1.0000   1.0000
     1.0000   1.0000   1.0000   1.0000   1.0000   1.0000   1.0000   1.0000
     1.0007   1.0016   0.0000   0.0000   0.0000

          k = 0.2000 0.5774 0.1230 (   735 PWs)   bands (ev):

   -77.3248 -77.3150 -40.7207 -40.6808 -40.6225 -40.5592 -40.5548 -40.5131
    14.1221  14.5721  14.9742  15.0952  15.7735  16.3730  16.7829  17.7184
    17.8936  18.1508  21.8449  23.0253  27.8295

     occupation numbers 
     1.0000   1.0000   1.0000   1.0000   1.0000   1.0000   1.0000   1.0000
     1.0000   1.0000   1.0000   1.0000   1.0000   1.0000   1.0000   1.0000
     1.0000   1.0043   0.0000   0.0000   0.0000

          k = 0.2000 0.5774 0.2459 (   746 PWs)   bands (ev):

   -77.3217 -77.3180 -40.7329 -40.7182 -40.6061 -40.5787 -40.5157 -40.4991
    14.1490  14.4562  15.0297  15.4521  15.7029  16.3603  17.0187  17.2242
    17.9904  18.1584  22.3932  22.8788  26.6698

     occupation numbers 
     1.0000   1.0000   1.0000   1.0000   1.0000   1.0000   1.0000   1.0000
     1.0000   1.0000   1.0000   1.0000   1.0000   1.0000   1.0000   1.0000
     1.0003   1.0048   0.0000   0.0000   0.0000

          k = 0.3000 0.5196 0.0000 (   739 PWs)   bands (ev):

   -77.3225 -77.3150 -40.6867 -40.6463 -40.6178 -40.5961 -40.5684 -40.5531
    14.4025  14.6850  14.8461  15.0827  15.8105  16.0079  16.7851  17.7068
    17.9796  18.0378  22.0392  25.0570  25.0845

     occupation numbers 
     1.0000   1.0000   1.0000   1.0000   1.0000   1.0000   1.0000   1.0000
     1.0000   1.0000   1.0000   1.0000   1.0000   1.0000   1.0000   1.0000
     1.0002   1.0007   0.0000   0.0000   0.0000

          k = 0.3000 0.5196 0.1230 (   737 PWs)   bands (ev):

   -77.3218 -77.3157 -40.6871 -40.6809 -40.6409 -40.5842 -40.5500 -40.5250
    14.4671  14.7221  14.9760  15.0270  15.8836  15.9127  16.7634  17.6460
    17.7851  18.0965  22.3408  24.9738  25.4380

     occupation numbers 
     1.0000   1.0000   1.0000   1.0000   1.0000   1.0000   1.0000   1.0000
     1.0000   1.0000   1.0000   1.0000   1.0000   1.0000   1.0000   1.0000
     1.0000   1.0019   0.0000   0.0000   0.0000

          k = 0.3000 0.5196 0.2459 (   748 PWs)   bands (ev):

   -77.3199 -77.3176 -40.7090 -40.7054 -40.6345 -40.6069 -40.5108 -40.5013
    14.5920  14.6918  15.1243  15.2200  15.7326  15.9080  16.7856  17.0765
    17.9724  18.1223  23.0992  24.1909  26.4784

     occupation numbers 
     1.0000   1.0000   1.0000   1.0000   1.0000   1.0000   1.0000   1.0000
     1.0000   1.0000   1.0000   1.0000   1.0000   1.0000   1.0000   1.0000
     1.0002   1.0028   0.0000   0.0000   0.0000

 ------ SPIN DOWN ----------


          k = 0.0000 0.0000 0.0000 (   713 PWs)   bands (ev):

   -75.0140 -74.9488 -38.5195 -38.1859 -38.1859 -38.1393 -38.1325 -38.1325
     9.7550  14.5728  17.9131  17.9846  17.9846  18.3621  18.3621  18.5798
    18.8237  18.8237  20.0744  20.0744  26.3874

     occupation numbers 
     1.0000   1.0000   1.0000   1.0000   1.0000   1.0000   1.0000   1.0000
     1.0000   1.0000   1.0001   1.0003   1.0003   1.0442   1.0442   1.0651
     0.5982   0.5982   0.0000   0.0000   0.0000

          k = 0.0000 0.0000 0.1230 (   718 PWs)   bands (ev):

   -75.0078 -74.9551 -38.4838 -38.1808 -38.1808 -38.1761 -38.1376 -38.1376
    10.1611  14.2189  17.7785  17.8220  17.9006  17.9006  18.2435  18.2435
    19.0703  19.0703  20.0473  20.0473  28.2101

     occupation numbers 
     1.0000   1.0000   1.0000   1.0000   1.0000   1.0000   1.0000   1.0000
     1.0000   1.0000   1.0000   1.0000   1.0000   1.0000   1.0143   1.0143
     0.0945   0.0945   0.0000   0.0000   0.0000

          k = 0.0000 0.0000 0.2459 (   718 PWs)   bands (ev):

   -74.9915 -74.9714 -38.3897 -38.2720 -38.1675 -38.1675 -38.1509 -38.1509
    11.3114  12.9233  17.2848  17.4666  17.8712  17.8712  18.0143  18.0143
    19.5204  19.5204  19.8828  19.8828  32.0961

     occupation numbers 
     1.0000   1.0000   1.0000   1.0000   1.0000   1.0000   1.0000   1.0000
     1.0000   1.0000   1.0000   1.0000   1.0000   1.0000   1.0005   1.0005
     0.0001   0.0001   0.0000   0.0000   0.0000

          k = 0.0000 0.1155 0.0000 (   725 PWs)   bands (ev):

   -75.0086 -74.9463 -38.5075 -38.2127 -38.1945 -38.1603 -38.1440 -38.1370
    10.1133  14.8189  17.6083  17.7893  18.1716  18.1845  18.2876  18.5281
    18.7014  18.7163  20.1256  21.1823  26.4105

     occupation numbers 
     1.0000   1.0000   1.0000   1.0000   1.0000   1.0000   1.0000   1.0000
     1.0000   1.0000   1.0000   1.0000   1.0058   1.0069   1.0229   1.0825
     0.9061   0.8745   0.0000   0.0000   0.0000

          k = 0.0000 0.1155 0.1230 (   726 PWs)   bands (ev):

   -75.0026 -74.9522 -38.4748 -38.2065 -38.1927 -38.1890 -38.1515 -38.1425
    10.5112  14.4893  17.2922  17.6248  17.8981  18.0571  18.2676  18.3963
    19.0014  19.0298  20.0804  20.6372  28.3528

     occupation numbers 
     1.0000   1.0000   1.0000   1.0000   1.0000   1.0000   1.0000   1.0000
     1.0000   1.0000   1.0000   1.0000   1.0000   1.0010   1.0186   1.0559
     0.1833   0.1416   0.0000   0.0000   0.0000

          k = 0.0000 0.1155 0.2459 (   716 PWs)   bands (ev):

   -74.9871 -74.9678 -38.3883 -38.2806 -38.1893 -38.1746 -38.1686 -38.1568
    11.6380  13.2190  17.0619  17.4075  17.7513  18.0054  18.0196  18.1656
    19.4845  19.5544  19.8796  20.0666  32.3137

     occupation numbers 
     1.0000   1.0000   1.0000   1.0000   1.0000   1.0000   1.0000   1.0000
     1.0000   1.0000   1.0000   1.0000   1.0000   1.0004   1.0005   1.0053
     0.0001   0.0000   0.0000   0.0000   0.0000

          k = 0.0000 0.2309 0.0000 (   725 PWs)   bands (ev):

   -74.9941 -74.9399 -38.4740 -38.2832 -38.2316 -38.2163 -38.1585 -38.1492
    11.1388  15.3938  16.8184  17.1655  17.9610  18.4228  18.4723  18.6683
    18.6896  18.9814  20.2197  23.0550  26.5152

     occupation numbers 
     1.0000   1.0000   1.0000   1.0000   1.0000   1.0000   1.0000   1.0000
     1.0000   1.0000   1.0000   1.0000   1.0002   1.0649   1.0788   0.9672
     0.9293   0.2174   0.0000   0.0000   0.0000

          k = 0.0000 0.2309 0.1230 (   729 PWs)   bands (ev):

   -74.9889 -74.9451 -38.4519 -38.2730 -38.2539 -38.2100 -38.1691 -38.1557
    11.5057  15.1451  16.5702  17.2406  17.7883  18.2004  18.3324  18.7895
    19.0371  19.0829  20.1393  21.7828  28.8321

     occupation numbers 
     1.0000   1.0000   1.0000   1.0000   1.0000   1.0000   1.0000   1.0000
     1.0000   1.0000   1.0000   1.0000   1.0000   1.0085   1.0348   0.6922
     0.1320   0.0827   0.0000   0.0000   0.0000

          k = 0.0000 0.2309 0.2459 (   725 PWs)   bands (ev):

   -74.9754 -74.9587 -38.3932 -38.3195 -38.2372 -38.1988 -38.1932 -38.1725
    12.5390  13.9795  16.7069  17.2064  17.5453  17.8973  18.3655  18.5654
    19.4645  19.6903  19.8787  20.5082  32.9290

     occupation numbers 
     1.0000   1.0000   1.0000   1.0000   1.0000   1.0000   1.0000   1.0000
     1.0000   1.0000   1.0000   1.0000   1.0000   1.0000   1.0453   1.0725
     0.0002   0.0000   0.0000   0.0000   0.0000

          k = 0.0000 0.3464 0.0000 (   729 PWs)   bands (ev):

   -74.9751 -74.9331 -38.4265 -38.3713 -38.3177 -38.2424 -38.1824 -38.1651
    12.6483  15.7024  16.1130  16.8979  17.8969  18.1271  18.1785  19.3495
    19.3945  19.5888  20.2914  25.2130  26.6651

     occupation numbers 
     1.0000   1.0000   1.0000   1.0000   1.0000   1.0000   1.0000   1.0000
     1.0000   1.0000   1.0000   1.0000   1.0000   1.0031   1.0063   0.0019
     0.0008   0.0000   0.0000   0.0000   0.0000

          k = 0.0000 0.3464 0.1230 (   725 PWs)   bands (ev):

   -74.9711 -74.9371 -38.4370 -38.3494 -38.3240 -38.2351 -38.1877 -38.1725
    12.9320  15.5339  16.1077  16.9694  17.6824  18.2493  18.2615  19.3917
    19.4450  19.5180  20.1924  22.9783  29.5113

     occupation numbers 
     1.0000   1.0000   1.0000   1.0000   1.0000   1.0000   1.0000   1.0000
     1.0000   1.0000   1.0000   1.0000   1.0000   1.0152   1.0174   0.0009
     0.0003   0.0001   0.0000   0.0000   0.0000

          k = 0.0000 0.3464 0.2459 (   733 PWs)   bands (ev):

   -74.9606 -74.9476 -38.4278 -38.3905 -38.2660 -38.2158 -38.2140 -38.1919
    13.7039  14.7149  16.4770  16.9139  17.6619  18.0382  18.5844  19.0302
    19.6973  19.9274  19.9590  21.0346  31.4542

     occupation numbers 
     1.0000   1.0000   1.0000   1.0000   1.0000   1.0000   1.0000   1.0000
     1.0000   1.0000   1.0000   1.0000   1.0000   1.0007   1.0623   0.1410
     0.0000   0.0000   0.0000   0.0000   0.0000

          k = 0.0000 0.4619 0.0000 (   724 PWs)   bands (ev):

   -74.9579 -74.9293 -38.4431 -38.3859 -38.3777 -38.2631 -38.2121 -38.1783
    14.1755  15.4897  15.6977  16.8842  17.9121  17.9456  18.1688  20.0088
    20.1544  20.3282  20.4161  25.2871  27.5111

     occupation numbers 
     1.0000   1.0000   1.0000   1.0000   1.0000   1.0000   1.0000   1.0000
     1.0000   1.0000   1.0000   1.0000   1.0001   1.0001   1.0056   0.0000
     0.0000   0.0000   0.0000   0.0000   0.0000

          k = 0.0000 0.4619 0.1230 (   725 PWs)   bands (ev):

   -74.9552 -74.9321 -38.4682 -38.4116 -38.3294 -38.2550 -38.2095 -38.1865
    14.2439  15.3672  15.9589  16.6759  18.0839  18.0899  18.5086  19.8929
    20.0423  20.2324  20.2903  23.7084  27.5935

     occupation numbers 
     1.0000   1.0000   1.0000   1.0000   1.0000   1.0000   1.0000   1.0000
     1.0000   1.0000   1.0000   1.0000   1.0016   1.0017   1.0833   0.0000
     0.0000   0.0000   0.0000   0.0000   0.0000

          k = 0.0000 0.4619 0.2459 (   737 PWs)   bands (ev):

   -74.9480 -74.9392 -38.4784 -38.4541 -38.2645 -38.2339 -38.2215 -38.2077
    14.5050  14.9592  16.3490  16.6643  18.2907  18.5842  18.9212  19.2663
    20.1168  20.2113  20.2467  21.6010  28.2793

     occupation numbers 
     1.0000   1.0000   1.0000   1.0000   1.0000   1.0000   1.0000   1.0000
     1.0000   1.0000   1.0000   1.0000   1.0237   1.0625   0.3426   0.0074
     0.0000   0.0000   0.0000   0.0000   0.0000

          k = 0.0000-0.5774 0.0000 (   732 PWs)   bands (ev):

   -74.9503 -74.9290 -38.4707 -38.4116 -38.3528 -38.2709 -38.2297 -38.1835
    14.9187  15.2475  15.5617  16.9864  17.8340  17.8574  18.3014  20.2405
    20.3388  20.4086  21.5726  23.3330  29.0725

     occupation numbers 
     1.0000   1.0000   1.0000   1.0000   1.0000   1.0000   1.0000   1.0000
     1.0000   1.0000   1.0000   1.0000   1.0000   1.0000   1.0263   0.0000
     0.0000   0.0000   0.0000   0.0000   0.0000

          k = 0.0000-0.5774 0.1230 (   732 PWs)   bands (ev):

   -74.9482 -74.9310 -38.4897 -38.4362 -38.3163 -38.2626 -38.2223 -38.1919
    14.7053  15.2545  16.0875  16.4278  18.0261  18.2461  18.8224  20.0028
    20.2916  20.3960  21.1082  22.9760  28.1775

     occupation numbers 
     1.0000   1.0000   1.0000   1.0000   1.0000   1.0000   1.0000   1.0000
     1.0000   1.0000   1.0000   1.0000   1.0006   1.0147   0.6017   0.0000
     0.0000   0.0000   0.0000   0.0000   0.0000

          k = 0.0000-0.5774 0.2459 (   738 PWs)   bands (ev):

   -74.9429 -74.9363 -38.5008 -38.4788 -38.2595 -38.2408 -38.2251 -38.2138
    14.6931  14.9938  16.3421  16.5409  18.5624  18.6077  19.3085  19.7620
    20.3212  20.3626  20.4618  21.8951  27.4081

     occupation numbers 
     1.0000   1.0000   1.0000   1.0000   1.0000   1.0000   1.0000   1.0000
     1.0000   1.0000   1.0000   1.0000   1.0738   1.0445   0.0038   0.0000
     0.0000   0.0000   0.0000   0.0000   0.0000

          k = 0.1000 0.1732 0.0000 (   729 PWs)   bands (ev):

   -74.9986 -74.9418 -38.4848 -38.2554 -38.2288 -38.1923 -38.1537 -38.1497
    10.8069  15.2439  17.0710  17.2545  18.0704  18.3513  18.4278  18.5513
    18.6964  18.8935  20.1743  22.5280  26.4810

     occupation numbers 
     1.0000   1.0000   1.0000   1.0000   1.0000   1.0000   1.0000   1.0000
     1.0000   1.0000   1.0000   1.0000   1.0012   1.0407   1.0665   1.0777
     0.9161   0.4102   0.0000   0.0000   0.0000

          k = 0.1000 0.1732 0.1230 (   730 PWs)   bands (ev):

   -74.9932 -74.9473 -38.4586 -38.2459 -38.2404 -38.2027 -38.1620 -38.1557
    11.1857  14.9674  16.7521  17.3196  17.8801  18.1287  18.3131  18.6376
    19.0274  19.0529  20.1112  21.4693  28.6709

     occupation numbers 
     1.0000   1.0000   1.0000   1.0000   1.0000   1.0000   1.0000   1.0000
     1.0000   1.0000   1.0000   1.0000   1.0000   1.0031   1.0293   1.0121
     0.1448   0.1130   0.0000   0.0000   0.0000

          k = 0.1000 0.1732 0.2459 (   721 PWs)   bands (ev):

   -74.9790 -74.9615 -38.3896 -38.3043 -38.2216 -38.1999 -38.1802 -38.1707
    12.2557  13.7555  16.7970  17.2853  17.5611  17.8909  18.2878  18.4443
    19.4745  19.6325  19.8826  20.3822  32.7454

     occupation numbers 
     1.0000   1.0000   1.0000   1.0000   1.0000   1.0000   1.0000   1.0000
     1.0000   1.0000   1.0000   1.0000   1.0000   1.0000   1.0230   1.0716
     0.0002   0.0000   0.0000   0.0000   0.0000

          k = 0.1000 0.2887 0.0000 (   729 PWs)   bands (ev):

   -74.9818 -74.9353 -38.4440 -38.3281 -38.2962 -38.2280 -38.1730 -38.1698
    12.0903  15.7723  16.3684  16.8238  17.8979  18.0043  18.4785  18.8200
    19.2103  19.5403  20.2236  24.4525  26.6995

     occupation numbers 
     1.0000   1.0000   1.0000   1.0000   1.0000   1.0000   1.0000   1.0000
     1.0000   1.0000   1.0000   1.0000   1.0000   1.0004   1.0800   0.6085
     0.0170   0.0000   0.0000   0.0000   0.0000

          k = 0.1000 0.2887 0.1230 (   725 PWs)   bands (ev):

   -74.9774 -74.9397 -38.4363 -38.3189 -38.2997 -38.2309 -38.1808 -38.1729
    12.4168  15.5909  16.2424  16.9202  17.7007  18.0550  18.3554  18.9538
    19.3938  19.4638  20.1657  22.6137  29.3865

     occupation numbers 
     1.0000   1.0000   1.0000   1.0000   1.0000   1.0000   1.0000   1.0000
     1.0000   1.0000   1.0000   1.0000   1.0000   1.0010   1.0420   0.2708
     0.0008   0.0002   0.0000   0.0000   0.0000

          k = 0.1000 0.2887 0.2459 (   727 PWs)   bands (ev):

   -74.9658 -74.9514 -38.4076 -38.3601 -38.2575 -38.2273 -38.1983 -38.1894
    13.3237  14.5588  16.5767  17.0239  17.4320  17.7545  18.5301  18.8598
    19.6828  19.8273  19.9859  20.8784  33.2838

     occupation numbers 
     1.0000   1.0000   1.0000   1.0000   1.0000   1.0000   1.0000   1.0000
     1.0000   1.0000   1.0000   1.0000   1.0000   1.0000   1.0822   0.4990
     0.0000   0.0000   0.0000   0.0000   0.0000

          k = 0.1000 0.4041 0.0000 (   730 PWs)   bands (ev):

   -74.9635 -74.9302 -38.4067 -38.3946 -38.3595 -38.2626 -38.2011 -38.1885
    13.6713  15.7651  15.8847  16.6989  17.7784  18.0452  18.1629  19.4400
    19.8771  20.2564  20.3619  26.5946  26.6738

     occupation numbers 
     1.0000   1.0000   1.0000   1.0000   1.0000   1.0000   1.0000   1.0000
     1.0000   1.0000   1.0000   1.0000   1.0000   1.0008   1.0051   0.0003
     0.0000   0.0000   0.0000   0.0000   0.0000

          k = 0.1000 0.4041 0.1230 (   739 PWs)   bands (ev):

   -74.9603 -74.9334 -38.4427 -38.3865 -38.3303 -38.2589 -38.2058 -38.1889
    13.8646  15.6020  16.0156  16.7762  17.6924  18.1365  18.2325  19.4298
    19.8892  19.9924  20.4715  23.7727  28.7543

     occupation numbers 
     1.0000   1.0000   1.0000   1.0000   1.0000   1.0000   1.0000   1.0000
     1.0000   1.0000   1.0000   1.0000   1.0000   1.0035   1.0126   0.0004
     0.0000   0.0000   0.0000   0.0000   0.0000

          k = 0.1000 0.4041 0.2459 (   733 PWs)   bands (ev):

   -74.9520 -74.9417 -38.4504 -38.4248 -38.2728 -38.2454 -38.2195 -38.2001
    14.3795  15.0446  16.4404  16.8374  17.6665  17.9784  18.6150  19.1178
    19.9395  20.2297  20.4798  21.5714  29.8464

     occupation numbers 
     1.0000   1.0000   1.0000   1.0000   1.0000   1.0000   1.0000   1.0000
     1.0000   1.0000   1.0000   1.0000   1.0000   1.0002   1.0375   0.0558
     0.0000   0.0000   0.0000   0.0000   0.0000

          k = 0.1000 0.5196 0.0000 (   730 PWs)   bands (ev):

   -74.9503 -74.9289 -38.4558 -38.3983 -38.3532 -38.2832 -38.2293 -38.1999
    14.8815  15.4863  15.6462  16.7836  17.7283  17.8873  18.3020  20.0764
    20.2366  20.2697  21.4581  24.2778  28.8944

     occupation numbers 
     1.0000   1.0000   1.0000   1.0000   1.0000   1.0000   1.0000   1.0000
     1.0000   1.0000   1.0000   1.0000   1.0000   1.0000   1.0264   0.0000
     0.0000   0.0000   0.0000   0.0000   0.0000

          k = 0.1000 0.5196 0.1230 (   729 PWs)   bands (ev):

   -74.9483 -74.9310 -38.4749 -38.4237 -38.3212 -38.2707 -38.2281 -38.2009
    14.7793  15.4477  16.0537  16.5100  17.7470  18.3315  18.4234  19.8933
    20.0906  20.3124  21.3320  23.7233  27.6598

     occupation numbers 
     1.0000   1.0000   1.0000   1.0000   1.0000   1.0000   1.0000   1.0000
     1.0000   1.0000   1.0000   1.0000   1.0000   1.0345   1.0651   0.0000
     0.0000   0.0000   0.0000   0.0000   0.0000

          k = 0.1000 0.5196 0.2459 (   738 PWs)   bands (ev):

   -74.9429 -74.9363 -38.4864 -38.4654 -38.2801 -38.2499 -38.2317 -38.2058
    14.8369  15.1600  16.3932  16.6885  17.8720  18.5332  18.8808  19.3436
    20.1000  20.3490  21.3612  22.3892  27.4811

     occupation numbers 
     1.0000   1.0000   1.0000   1.0000   1.0000   1.0000   1.0000   1.0000
     1.0000   1.0000   1.0000   1.0000   1.0000   1.0818   0.4431   0.0021
     0.0000   0.0000   0.0000   0.0000   0.0000

          k = 0.2000 0.3464 0.0000 (   733 PWs)   bands (ev):

   -74.9656 -74.9306 -38.4007 -38.3681 -38.3646 -38.2579 -38.2064 -38.1973
    13.4920  16.0079  16.1212  16.3803  17.6596  18.0063  18.2797  19.0649
    19.8692  20.1869  20.4000  26.4051  27.1711

     occupation numbers 
     1.0000   1.0000   1.0000   1.0000   1.0000   1.0000   1.0000   1.0000
     1.0000   1.0000   1.0000   1.0000   1.0000   1.0004   1.0212   0.1000
     0.0000   0.0000   0.0000   0.0000   0.0000

          k = 0.2000 0.3464 0.1230 (   736 PWs)   bands (ev):

   -74.9622 -74.9339 -38.4265 -38.3782 -38.3186 -38.2690 -38.2126 -38.1903
    13.7316  15.7855  16.2846  16.4859  17.6278  17.9401  18.1800  19.1616
    19.8191  20.0223  20.5616  23.8027  30.2882

     occupation numbers 
     1.0000   1.0000   1.0000   1.0000   1.0000   1.0000   1.0000   1.0000
     1.0000   1.0000   1.0000   1.0000   1.0000   1.0001   1.0065   0.0327
     0.0000   0.0000   0.0000   0.0000   0.0000

          k = 0.2000 0.3464 0.2459 (   732 PWs)   bands (ev):

   -74.9535 -74.9427 -38.4320 -38.4080 -38.2697 -38.2690 -38.2187 -38.1976
    14.3695  15.1667  16.6494  16.7477  17.4121  17.5257  18.4579  18.9991
    19.9577  20.2403  20.6535  21.6266  31.8445

     occupation numbers 
     1.0000   1.0000   1.0000   1.0000   1.0000   1.0000   1.0000   1.0000
     1.0000   1.0000   1.0000   1.0000   1.0000   1.0000   1.0754   0.1871
     0.0000   0.0000   0.0000   0.0000   0.0000

          k = 0.2000 0.4619 0.0000 (   739 PWs)   bands (ev):

   -74.9504 -74.9289 -38.4204 -38.3819 -38.3538 -38.2995 -38.2364 -38.2288
    14.8965  15.8055  15.9302  16.3732  17.5236  17.9504  18.3010  19.5136
    20.1554  20.2258  21.5194  26.2374  28.8064

     occupation numbers 
     1.0000   1.0000   1.0000   1.0000   1.0000   1.0000   1.0000   1.0000
     1.0000   1.0000   1.0000   1.0000   1.0000   1.0001   1.0261   0.0001
     0.0000   0.0000   0.0000   0.0000   0.0000

          k = 0.2000 0.4619 0.1230 (   736 PWs)   bands (ev):

   -74.9483 -74.9309 -38.4391 -38.4098 -38.3233 -38.2935 -38.2452 -38.2096
    14.9644  15.7413  16.0780  16.5452  17.5447  17.7797  18.3599  19.5364
    19.8290  20.3347  21.6362  24.9855  27.9054

     occupation numbers 
     1.0000   1.0000   1.0000   1.0000   1.0000   1.0000   1.0000   1.0000
     1.0000   1.0000   1.0000   1.0000   1.0000   1.0000   1.0435   0.0000
     0.0000   0.0000   0.0000   0.0000   0.0000

          k = 0.2000 0.4619 0.2459 (   740 PWs)   bands (ev):

   -74.9429 -74.9363 -38.4555 -38.4410 -38.3089 -38.2862 -38.2263 -38.2023
    15.1755  15.4850  16.5044  16.9116  17.2856  17.5722  18.5793  19.0492
    20.0146  20.3896  21.9663  23.0330  28.6805

     occupation numbers 
     1.0000   1.0000   1.0000   1.0000   1.0000   1.0000   1.0000   1.0000
     1.0000   1.0000   1.0000   1.0000   1.0000   1.0000   1.0655   0.1172
     0.0000   0.0000   0.0000   0.0000   0.0000

          k = 0.2000 0.5774 0.0000 (   739 PWs)   bands (ev):

   -74.9430 -74.9298 -38.4398 -38.3818 -38.3265 -38.3231 -38.2501 -38.2473
    15.5022  15.7437  15.7680  16.4657  17.5770  17.7144  18.4591  19.9184
    20.1435  20.1648  22.7590  24.1347  28.7532

     occupation numbers 
     1.0000   1.0000   1.0000   1.0000   1.0000   1.0000   1.0000   1.0000
     1.0000   1.0000   1.0000   1.0000   1.0000   1.0000   1.0757   0.0000
     0.0000   0.0000   0.0000   0.0000   0.0000

          k = 0.2000 0.5774 0.1230 (   735 PWs)   bands (ev):

   -74.9417 -74.9310 -38.4534 -38.4091 -38.3435 -38.2723 -38.2688 -38.2211
    15.3199  15.8398  16.2323  16.3090  17.4495  17.8108  18.5486  19.7687
    19.9375  20.2437  22.9090  24.0520  28.4985

     occupation numbers 
     1.0000   1.0000   1.0000   1.0000   1.0000   1.0000   1.0000   1.0000
     1.0000   1.0000   1.0000   1.0000   1.0000   1.0000   1.0785   0.0000
     0.0000   0.0000   0.0000   0.0000   0.0000

          k = 0.2000 0.5774 0.2459 (   746 PWs)   bands (ev):

   -74.9384 -74.9343 -38.4664 -38.4501 -38.3261 -38.2958 -38.2240 -38.2055
    15.3568  15.6322  16.5168  16.9532  17.1049  17.6933  18.8044  19.1554
    20.0539  20.2495  23.2699  23.7486  27.5775

     occupation numbers 
     1.0000   1.0000   1.0000   1.0000   1.0000   1.0000   1.0000   1.0000
     1.0000   1.0000   1.0000   1.0000   1.0000   1.0000   0.6516   0.0353
     0.0000   0.0000   0.0000   0.0000   0.0000

          k = 0.3000 0.5196 0.0000 (   739 PWs)   bands (ev):

   -74.9393 -74.9310 -38.4164 -38.3715 -38.3400 -38.3110 -38.2851 -38.2634
    15.7656  15.8271  16.1023  16.1331  17.4666  17.6555  18.5622  19.7345
    20.0813  20.1092  23.1967  25.8348  25.8660

     occupation numbers 
     1.0000   1.0000   1.0000   1.0000   1.0000   1.0000   1.0000   1.0000
     1.0000   1.0000   1.0000   1.0000   1.0000   1.0000   1.0738   0.0000
     0.0000   0.0000   0.0000   0.0000   0.0000

          k = 0.3000 0.5196 0.1230 (   737 PWs)   bands (ev):

   -74.9385 -74.9318 -38.4165 -38.4085 -38.3647 -38.3019 -38.2619 -38.2334
    15.8370  15.8429  16.1855  16.3110  17.4498  17.4521  18.5486  19.6831
    19.8264  20.1801  23.4676  25.6886  26.2480

     occupation numbers 
     1.0000   1.0000   1.0000   1.0000   1.0000   1.0000   1.0000   1.0000
     1.0000   1.0000   1.0000   1.0000   1.0000   1.0000   1.0785   0.0000
     0.0000   0.0000   0.0000   0.0000   0.0000

          k = 0.3000 0.5196 0.2459 (   748 PWs)   bands (ev):

   -74.9364 -74.9339 -38.4394 -38.4357 -38.3580 -38.3275 -38.2183 -38.2076
    15.8987  15.9225  16.4436  16.6796  17.0892  17.2873  18.6236  19.0214
    20.0320  20.2069  24.0690  24.9562  27.2729

     occupation numbers 
     1.0000   1.0000   1.0000   1.0000   1.0000   1.0000   1.0000   1.0000
     1.0000   1.0000   1.0000   1.0000   1.0000   1.0000   1.0285   0.1531
     0.0000   0.0000   0.0000   0.0000   0.0000

     the Fermi energy is    18.8973 ev

!    total energy              =    -596.97766308 Ry
     estimated scf accuracy    <          2.0E-10 Ry
     smearing contrib. (-TS)   =       0.00165071 Ry
     internal energy E=F+TS    =    -596.97931379 Ry

     The total energy is F=E-TS. E is the sum of the following terms:
     one-electron contribution =    -304.90701581 Ry
     hartree contribution      =     174.96207420 Ry
     xc contribution           =     -65.39713096 Ry
     ewald contribution        =    -401.63724122 Ry

     total magnetization       =     3.36 Bohr mag/cell
     absolute magnetization    =     3.71 Bohr mag/cell

     convergence has been achieved in  12 iterations

     Forces acting on atoms (cartesian axes, Ry/au):

     atom    1 type  1   force =    -0.00000000   -0.00000000    0.00000000
     atom    2 type  1   force =     0.00000000   -0.00000000    0.00000000
     The non-local contrib.  to forces
     atom    1 type  1   force =     0.00000000   -0.00000000    0.00000000
     atom    2 type  1   force =    -0.00000000    0.00000000    0.00000000
     The ionic contribution  to forces
     atom    1 type  1   force =     0.00000011   -0.00000006    0.00000000
     atom    2 type  1   force =    -0.00000011    0.00000006   -0.00000000
     The local contribution  to forces
     atom    1 type  1   force =     0.00000450   -0.00000260    0.00000118
     atom    2 type  1   force =    -0.00001350    0.00000779    0.00000118
     The core correction contribution to forces
     atom    1 type  1   force =     0.00000003   -0.00000002   -0.00000001
     atom    2 type  1   force =    -0.00000009    0.00000005   -0.00000001
     The Hubbard contrib.    to forces
     atom    1 type  1   force =     0.00000000    0.00000000    0.00000000
     atom    2 type  1   force =     0.00000000    0.00000000    0.00000000
     The SCF correction term to forces
     atom    1 type  1   force =    -0.00000000    0.00000000   -0.00000000
     atom    2 type  1   force =     0.00000000   -0.00000000   -0.00000000

     Total force =     0.000000     Total SCF correction =     0.000000


     Computing stress (Cartesian axis) and pressure

          total   stress  (Ry/bohr**3)                   (kbar)     P=       47.48
   0.00036812   0.00000000   0.00000000           54.15        0.00        0.00
   0.00000000   0.00036812   0.00000000            0.00       54.15        0.00
   0.00000000   0.00000000   0.00023204            0.00        0.00       34.13

     kinetic stress (kbar)  57875.36     -0.00      0.00
                               -0.00  57875.36     -0.00
                                0.00     -0.00  57803.60

     local   stress (kbar)   8654.14     -0.00      0.00
                               -0.00   8654.14     -0.00
                                0.00     -0.00   7203.93

     nonloc. stress (kbar)  32357.75      0.00      0.00
                                0.00  32357.75      0.00
                                0.00      0.00  32334.43

     hartree stress (kbar)  59548.93     -0.00      0.00
                               -0.00  59548.93     -0.00
                                0.00     -0.00  60126.82

     exc-cor stress (kbar) -16316.29     -0.00      0.00
                               -0.00 -16316.29      0.00
                                0.00      0.00 -16316.71

     corecor stress (kbar)  -4609.10      0.00     -0.00
                                0.00  -4609.10      0.00
                               -0.00      0.00  -4608.87

     ewald   stress (kbar)-137456.64      0.00     -0.00
                                0.00-137456.64      0.00
                               -0.00      0.00-136509.07

     hubbard stress (kbar)      0.00      0.00      0.00
                                0.00      0.00      0.00
                                0.00      0.00      0.00

     DFT-D   stress (kbar)      0.00      0.00      0.00
                                0.00      0.00      0.00
                                0.00      0.00      0.00

     XDM     stress (kbar)      0.00      0.00      0.00
                                0.00      0.00      0.00
                                0.00      0.00      0.00

     dft-nl  stress (kbar)      0.00      0.00      0.00
                                0.00      0.00      0.00
                                0.00      0.00      0.00

     TS-vdW  stress (kbar)      0.00      0.00      0.00
                                0.00      0.00      0.00
                                0.00      0.00      0.00

     MDB     stress (kbar)      0.00      0.00      0.00
                                0.00      0.00      0.00
                                0.00      0.00      0.00

     3D-RISM stress (kbar)      0.00      0.00      0.00
                                0.00      0.00      0.00
                                0.00      0.00      0.00


     Writing all to output data dir ../out/Co.save/ :
     XML data file, charge density, pseudopotentials, collected wavefunctions

     init_run     :      1.46s CPU      1.51s WALL (       1 calls)
     electrons    :     31.18s CPU     31.90s WALL (       1 calls)
     forces       :      0.32s CPU      0.32s WALL (       1 calls)
     stress       :      1.16s CPU      1.17s WALL (       1 calls)

     Called by init_run:
     wfcinit      :      1.00s CPU      1.03s WALL (       1 calls)
     wfcinit:atom :      0.01s CPU      0.01s WALL (      84 calls)
     wfcinit:wfcr :      0.90s CPU      0.93s WALL (      84 calls)
     potinit      :      0.07s CPU      0.07s WALL (       1 calls)
     hinit0       :      0.32s CPU      0.32s WALL (       1 calls)

     Called by electrons:
     c_bands      :     25.37s CPU     25.91s WALL (      12 calls)
     sum_band     :      4.52s CPU      4.69s WALL (      12 calls)
     v_of_rho     :      0.63s CPU      0.64s WALL (      13 calls)
     v_h          :      0.01s CPU      0.01s WALL (      13 calls)
     v_xc         :      0.72s CPU      0.72s WALL (      15 calls)
     newd         :      0.66s CPU      0.68s WALL (      13 calls)
     mix_rho      :      0.04s CPU      0.04s WALL (      12 calls)

     Called by c_bands:
     init_us_2    :      0.41s CPU      0.42s WALL (    2268 calls)
     cegterg      :     24.68s CPU     25.19s WALL (    1008 calls)

     Called by sum_band:
     sum_band:wei :      0.07s CPU      0.07s WALL (      12 calls)
     sum_band:loo :      3.51s CPU      3.63s WALL (      12 calls)
     sum_band:buf :      0.02s CPU      0.02s WALL (    1008 calls)
     sum_band:ini :      0.18s CPU      0.18s WALL (    1008 calls)
     sum_band:cal :      0.43s CPU      0.44s WALL (    1008 calls)
     sum_band:bec :      0.07s CPU      0.07s WALL (    1008 calls)
     addusdens    :      0.89s CPU      0.92s WALL (      12 calls)
                                        0.00s GPU  (      12 calls)
     addusd:skk   :      0.00s CPU      0.00s WALL (      12 calls)
                                        0.00s GPU  (      12 calls)

     Called by *egterg:
     cdiaghg      :      3.58s CPU      3.60s WALL (    3143 calls)
     cegterg:over :      1.38s CPU      1.39s WALL (    2135 calls)
     cegterg:upda :      0.62s CPU      0.62s WALL (    2135 calls)
     cegterg:last :      1.64s CPU      1.64s WALL (    1886 calls)
     h_psi        :     16.41s CPU     16.89s WALL (    3227 calls)
     s_psi        :      1.00s CPU      1.01s WALL (    3227 calls)
     g_psi        :      0.06s CPU      0.06s WALL (    2135 calls)

     Called by h_psi:
     h_psi:calbec :      1.09s CPU      1.13s WALL (    3227 calls)
     vloc_psi     :     14.26s CPU     14.69s WALL (    3227 calls)
     add_vuspsi   :      1.00s CPU      1.02s WALL (    3227 calls)

     General routines
     calbec       :      2.13s CPU      2.18s WALL (    5663 calls)
     fft          :      0.21s CPU      0.22s WALL (     363 calls)
     ffts         :      0.01s CPU      0.01s WALL (      50 calls)
     fftw         :     15.26s CPU     15.74s WALL (  126450 calls)
     interpolate  :      0.02s CPU      0.02s WALL (      26 calls)

     Parallel routines

     PWSCF        :     34.43s CPU     35.28s WALL


   This run was terminated on:  15:45:45  12Jun2025            

=------------------------------------------------------------------------------=
   JOB DONE.
=------------------------------------------------------------------------------=
