
     Program PWSCF v.7.2 starts on 24Feb2025 at 17: 6:57 

     This program is part of the open-source Quantum ESPRESSO suite
     for quantum simulation of materials; please cite
         "P. Giannozzi et al., J. Phys.:Condens. Matter 21 395502 (2009);
         "P. Giannozzi et al., J. Phys.:Condens. Matter 29 465901 (2017);
         "P. Giannozzi et al., J. Chem. Phys. 152 154105 (2020);
          URL http://www.quantum-espresso.org", 
     in publications or presentations arising from this work. More details at
     http://www.quantum-espresso.org/quote

     Parallel version (MPI & OpenMP), running on      32 processor cores
     Number of MPI processes:                 4
     Threads/MPI process:                     8

     MPI processes distributed on     1 nodes
     242200 MiB available memory on the printing compute node when the environment starts

     Waiting for input...
     Reading input from standard input

     Current dimensions of program PWSCF are:
     Max number of different atomic species (ntypx) = 10
     Max number of k-points (npk) =  40000
     Max angular momentum in pseudopotentials (lmaxx) =  4

     R & G space division:  proc/nbgrp/npool/nimage =       4
     Subspace diagonalization in iterative solution of the eigenvalue problem:
     a serial algorithm will be used


     Parallelization info
     --------------------
     sticks:   dense  smooth     PW     G-vecs:    dense   smooth      PW
     Min         124     124     37                 2874     2874     495
     Max         125     125     38                 2881     2881     500
     Sum         499     499    151                11513    11513    1993

     Using Slab Decomposition



     bravais-lattice index     =            4
     lattice parameter (alat)  =       6.0150  a.u.
     unit-cell volume          =     240.8621 (a.u.)^3
     number of atoms/cell      =            3
     number of atomic types    =            2
     number of electrons       =        26.00
     number of Kohn-Sham states=           17
     kinetic-energy cutoff     =      50.0000  Ry
     charge density cutoff     =     200.0000  Ry
     scf convergence threshold =      1.2E-09
     mixing beta               =       0.4000
     number of iterations used =            8  plain     mixing
     Exchange-correlation= SLA  PW   PSX  PSC
                           (   1   4  10   8   0   0   0)

     celldm(1)=   6.015000  celldm(2)=   0.000000  celldm(3)=   1.278000
     celldm(4)=   0.000000  celldm(5)=   0.000000  celldm(6)=   0.000000

     crystal axes: (cart. coord. in units of alat)
               a(1) = (   1.000000   0.000000   0.000000 )  
               a(2) = (  -0.500000   0.866025   0.000000 )  
               a(3) = (   0.000000   0.000000   1.278000 )  

     reciprocal axes: (cart. coord. in units 2 pi/alat)
               b(1) = (  1.000000  0.577350 -0.000000 )  
               b(2) = (  0.000000  1.154701  0.000000 )  
               b(3) = (  0.000000 -0.000000  0.782473 )  


     PseudoPot. # 1 for S  read from file:
     ./pseudo/s_pbesol_v1.4.uspp.F.UPF
     MD5 check sum: 0ccfa86ec6eb59065d10aaae963ef2a7
     Pseudo is Ultrasoft + core correction, Zval =  6.0
     Generated by new atomic code, or converted to UPF format
     Using radial grid of  907 points,  6 beta functions with: 
                l(1) =   0
                l(2) =   0
                l(3) =   1
                l(4) =   1
                l(5) =   2
                l(6) =   2
     Q(r) pseudized with  8 coefficients,  rinner =    1.300   1.300   1.300
                                                       1.300   1.300

     PseudoPot. # 2 for W  read from file:
     ./pseudo/w_pbesol_v1.2.uspp.F.UPF
     MD5 check sum: 78d6efd6ad550bd5be97e9711072ceda
     Pseudo is Ultrasoft + core correction, Zval = 14.0
     Generated by new atomic code, or converted to UPF format
     Using radial grid of  923 points,  8 beta functions with: 
                l(1) =   0
                l(2) =   0
                l(3) =   0
                l(4) =   1
                l(5) =   1
                l(6) =   2
                l(7) =   2
                l(8) =   3
     Q(r) pseudized with  6 coefficients,  rinner =    1.350   1.350   1.350
                                                       1.350   1.350   1.350
                                                       1.350

     atomic species   valence    mass     pseudopotential
        S              6.00    32.06500     S ( 1.00)
        W             14.00   183.84000     W ( 1.00)

      6 Sym. Ops. (no inversion) found


                                    s                        frac. trans.

      isym =  1     identity                                     

 cryst.   s( 1) = (     1          0          0      )
                  (     0          1          0      )
                  (     0          0          1      )

 cart.    s( 1) = (  1.0000000  0.0000000  0.0000000 )
                  (  0.0000000  1.0000000  0.0000000 )
                  (  0.0000000  0.0000000  1.0000000 )


      isym =  2     120 deg rotation - cryst. axis [0,0,1]       

 cryst.   s( 2) = (     0          1          0      )
                  (    -1         -1          0      )
                  (     0          0          1      )

 cart.    s( 2) = ( -0.5000000 -0.8660254  0.0000000 )
                  (  0.8660254 -0.5000000  0.0000000 )
                  (  0.0000000  0.0000000  1.0000000 )


      isym =  3     120 deg rotation - cryst. axis [0,0,-1]      

 cryst.   s( 3) = (    -1         -1          0      )
                  (     1          0          0      )
                  (     0          0          1      )

 cart.    s( 3) = ( -0.5000000  0.8660254  0.0000000 )
                  ( -0.8660254 -0.5000000  0.0000000 )
                  (  0.0000000  0.0000000  1.0000000 )


      isym =  4     inv. 180 deg rotation - cart. axis [1,0,0]   

 cryst.   s( 4) = (    -1          0          0      )
                  (     1          1          0      )
                  (     0          0          1      )

 cart.    s( 4) = ( -1.0000000  0.0000000  0.0000000 )
                  (  0.0000000  1.0000000  0.0000000 )
                  (  0.0000000  0.0000000  1.0000000 )


      isym =  5     inv. 180 deg rotation - cryst. axis [0,1,0]  

 cryst.   s( 5) = (     1          1          0      )
                  (     0         -1          0      )
                  (     0          0          1      )

 cart.    s( 5) = (  0.5000000  0.8660254  0.0000000 )
                  (  0.8660254 -0.5000000  0.0000000 )
                  (  0.0000000  0.0000000  1.0000000 )


      isym =  6     inv. 180 deg rotation - cryst. axis [1,1,0]  

 cryst.   s( 6) = (     0         -1          0      )
                  (    -1          0          0      )
                  (     0          0          1      )

 cart.    s( 6) = (  0.5000000 -0.8660254  0.0000000 )
                  ( -0.8660254 -0.5000000  0.0000000 )
                  (  0.0000000  0.0000000  1.0000000 )


     point group C_3v (3m)  
     there are  3 classes
     the character table:

       E     2C3   3s_v 
A_1    1.00  1.00  1.00
A_2    1.00  1.00 -1.00
E      2.00 -1.00  0.00

     the symmetry operations in each class and the name of the first element:

     E        1
          identity                                               
     2C3      2    3
          120 deg rotation - cryst. axis [0,0,1]                 
     3s_v     4    5    6
          inv. 180 deg rotation - cart. axis [1,0,0]             

   Cartesian axes

     site n.     atom                  positions (alat units)
         1           W   tau(   1) = (  -0.0000005   0.5773506   0.4301045  )
         2           S   tau(   2) = (   0.0000000   0.0000000   0.8130483  )
         3           S   tau(   3) = (   0.5000005   0.2886748   0.0471288  )

   Crystallographic axes

     site n.     atom                  positions (cryst. coord.)
         1           W   tau(   1) = (  0.3333330  0.6666670  0.3365450  )
         2           S   tau(   2) = (  0.0000000  0.0000000  0.6361880  )
         3           S   tau(   3) = (  0.6666670  0.3333330  0.0368770  )

     number of k points=    69  Marzari-Vanderbilt smearing, width (Ry)=  0.0200
                       cart. coord. in units 2pi/alat
        k(    1) = (   0.0000000   0.0000000   0.0000000), wk =   0.0034722
        k(    2) = (   0.0000000   0.0000000   0.1956182), wk =   0.0069444
        k(    3) = (   0.0000000   0.0000000  -0.3912363), wk =   0.0034722
        k(    4) = (   0.0000000   0.0962250   0.0000000), wk =   0.0208333
        k(    5) = (   0.0000000   0.0962250   0.1956182), wk =   0.0208333
        k(    6) = (   0.0000000   0.0962250  -0.3912363), wk =   0.0208333
        k(    7) = (   0.0000000   0.1924501   0.0000000), wk =   0.0208333
        k(    8) = (   0.0000000   0.1924501   0.1956182), wk =   0.0208333
        k(    9) = (   0.0000000   0.1924501  -0.3912363), wk =   0.0208333
        k(   10) = (   0.0000000   0.2886751   0.0000000), wk =   0.0208333
        k(   11) = (   0.0000000   0.2886751   0.1956182), wk =   0.0208333
        k(   12) = (   0.0000000   0.2886751  -0.3912363), wk =   0.0208333
        k(   13) = (   0.0000000   0.3849002   0.0000000), wk =   0.0208333
        k(   14) = (   0.0000000   0.3849002   0.1956182), wk =   0.0208333
        k(   15) = (   0.0000000   0.3849002  -0.3912363), wk =   0.0208333
        k(   16) = (   0.0000000   0.4811252   0.0000000), wk =   0.0208333
        k(   17) = (   0.0000000   0.4811252   0.1956182), wk =   0.0208333
        k(   18) = (   0.0000000   0.4811252  -0.3912363), wk =   0.0208333
        k(   19) = (   0.0000000  -0.5773503   0.0000000), wk =   0.0104167
        k(   20) = (   0.0000000  -0.5773503   0.1956182), wk =   0.0208333
        k(   21) = (   0.0000000  -0.5773503  -0.3912363), wk =   0.0104167
        k(   22) = (   0.0833333   0.1443376   0.0000000), wk =   0.0208333
        k(   23) = (   0.0833333   0.1443376   0.1956182), wk =   0.0416667
        k(   24) = (   0.0833333   0.1443376  -0.3912363), wk =   0.0208333
        k(   25) = (   0.0833333   0.2405626   0.0000000), wk =   0.0416667
        k(   26) = (   0.0833333   0.2405626   0.1956182), wk =   0.0416667
        k(   27) = (   0.0833333   0.2405626  -0.3912363), wk =   0.0416667
        k(   28) = (   0.0833333   0.3367877   0.0000000), wk =   0.0416667
        k(   29) = (   0.0833333   0.3367877   0.1956182), wk =   0.0416667
        k(   30) = (   0.0833333   0.3367877  -0.3912363), wk =   0.0416667
        k(   31) = (   0.0833333   0.4330127   0.0000000), wk =   0.0416667
        k(   32) = (   0.0833333   0.4330127   0.1956182), wk =   0.0416667
        k(   33) = (   0.0833333   0.4330127  -0.3912363), wk =   0.0416667
        k(   34) = (   0.0833333   0.5292377   0.0000000), wk =   0.0416667
        k(   35) = (   0.0833333   0.5292377   0.1956182), wk =   0.0416667
        k(   36) = (   0.0833333   0.5292377  -0.3912363), wk =   0.0416667
        k(   37) = (   0.1666667   0.2886751   0.0000000), wk =   0.0208333
        k(   38) = (   0.1666667   0.2886751   0.1956182), wk =   0.0416667
        k(   39) = (   0.1666667   0.2886751  -0.3912363), wk =   0.0208333
        k(   40) = (   0.1666667   0.3849002   0.0000000), wk =   0.0416667
        k(   41) = (   0.1666667   0.3849002   0.1956182), wk =   0.0416667
        k(   42) = (   0.1666667   0.3849002  -0.3912363), wk =   0.0416667
        k(   43) = (   0.1666667   0.4811252   0.0000000), wk =   0.0416667
        k(   44) = (   0.1666667   0.4811252   0.1956182), wk =   0.0416667
        k(   45) = (   0.1666667   0.4811252  -0.3912363), wk =   0.0416667
        k(   46) = (   0.1666667   0.5773503   0.0000000), wk =   0.0208333
        k(   47) = (   0.1666667   0.5773503   0.1956182), wk =   0.0416667
        k(   48) = (   0.1666667   0.5773503  -0.3912363), wk =   0.0208333
        k(   49) = (   0.2500000   0.4330127   0.0000000), wk =   0.0208333
        k(   50) = (   0.2500000   0.4330127   0.1956182), wk =   0.0416667
        k(   51) = (   0.2500000   0.4330127  -0.3912363), wk =   0.0208333
        k(   52) = (   0.2500000   0.5292377   0.0000000), wk =   0.0416667
        k(   53) = (   0.2500000   0.5292377   0.1956182), wk =   0.0416667
        k(   54) = (   0.2500000   0.5292377  -0.3912363), wk =   0.0416667
        k(   55) = (   0.3333333   0.5773503   0.0000000), wk =   0.0069444
        k(   56) = (   0.3333333   0.5773503   0.1956182), wk =   0.0138889
        k(   57) = (   0.3333333   0.5773503  -0.3912363), wk =   0.0069444
        k(   58) = (   0.0000000  -0.0962250   0.1956182), wk =   0.0208333
        k(   59) = (   0.0000000  -0.1924501   0.1956182), wk =   0.0208333
        k(   60) = (   0.0000000  -0.2886751   0.1956182), wk =   0.0208333
        k(   61) = (   0.0000000  -0.3849002   0.1956182), wk =   0.0208333
        k(   62) = (   0.0000000  -0.4811252   0.1956182), wk =   0.0208333
        k(   63) = (  -0.0833333  -0.2405626   0.1956182), wk =   0.0416667
        k(   64) = (  -0.0833333  -0.3367877   0.1956182), wk =   0.0416667
        k(   65) = (  -0.0833333  -0.4330127   0.1956182), wk =   0.0416667
        k(   66) = (  -0.0833333  -0.5292377   0.1956182), wk =   0.0416667
        k(   67) = (  -0.1666667  -0.3849002   0.1956182), wk =   0.0416667
        k(   68) = (  -0.1666667  -0.4811252   0.1956182), wk =   0.0416667
        k(   69) = (  -0.2500000  -0.5292377   0.1956182), wk =   0.0416667

                       cryst. coord.
        k(    1) = (   0.0000000   0.0000000   0.0000000), wk =   0.0034722
        k(    2) = (   0.0000000   0.0000000   0.2500000), wk =   0.0069444
        k(    3) = (   0.0000000   0.0000000  -0.5000000), wk =   0.0034722
        k(    4) = (   0.0000000   0.0833333   0.0000000), wk =   0.0208333
        k(    5) = (   0.0000000   0.0833333   0.2500000), wk =   0.0208333
        k(    6) = (   0.0000000   0.0833333  -0.5000000), wk =   0.0208333
        k(    7) = (   0.0000000   0.1666667   0.0000000), wk =   0.0208333
        k(    8) = (   0.0000000   0.1666667   0.2500000), wk =   0.0208333
        k(    9) = (   0.0000000   0.1666667  -0.5000000), wk =   0.0208333
        k(   10) = (   0.0000000   0.2500000   0.0000000), wk =   0.0208333
        k(   11) = (   0.0000000   0.2500000   0.2500000), wk =   0.0208333
        k(   12) = (   0.0000000   0.2500000  -0.5000000), wk =   0.0208333
        k(   13) = (   0.0000000   0.3333333   0.0000000), wk =   0.0208333
        k(   14) = (   0.0000000   0.3333333   0.2500000), wk =   0.0208333
        k(   15) = (   0.0000000   0.3333333  -0.5000000), wk =   0.0208333
        k(   16) = (   0.0000000   0.4166667   0.0000000), wk =   0.0208333
        k(   17) = (   0.0000000   0.4166667   0.2500000), wk =   0.0208333
        k(   18) = (   0.0000000   0.4166667  -0.5000000), wk =   0.0208333
        k(   19) = (   0.0000000  -0.5000000   0.0000000), wk =   0.0104167
        k(   20) = (   0.0000000  -0.5000000   0.2500000), wk =   0.0208333
        k(   21) = (   0.0000000  -0.5000000  -0.5000000), wk =   0.0104167
        k(   22) = (   0.0833333   0.0833333   0.0000000), wk =   0.0208333
        k(   23) = (   0.0833333   0.0833333   0.2500000), wk =   0.0416667
        k(   24) = (   0.0833333   0.0833333  -0.5000000), wk =   0.0208333
        k(   25) = (   0.0833333   0.1666667   0.0000000), wk =   0.0416667
        k(   26) = (   0.0833333   0.1666667   0.2500000), wk =   0.0416667
        k(   27) = (   0.0833333   0.1666667  -0.5000000), wk =   0.0416667
        k(   28) = (   0.0833333   0.2500000   0.0000000), wk =   0.0416667
        k(   29) = (   0.0833333   0.2500000   0.2500000), wk =   0.0416667
        k(   30) = (   0.0833333   0.2500000  -0.5000000), wk =   0.0416667
        k(   31) = (   0.0833333   0.3333333   0.0000000), wk =   0.0416667
        k(   32) = (   0.0833333   0.3333333   0.2500000), wk =   0.0416667
        k(   33) = (   0.0833333   0.3333333  -0.5000000), wk =   0.0416667
        k(   34) = (   0.0833333   0.4166667   0.0000000), wk =   0.0416667
        k(   35) = (   0.0833333   0.4166667   0.2500000), wk =   0.0416667
        k(   36) = (   0.0833333   0.4166667  -0.5000000), wk =   0.0416667
        k(   37) = (   0.1666667   0.1666667   0.0000000), wk =   0.0208333
        k(   38) = (   0.1666667   0.1666667   0.2500000), wk =   0.0416667
        k(   39) = (   0.1666667   0.1666667  -0.5000000), wk =   0.0208333
        k(   40) = (   0.1666667   0.2500000   0.0000000), wk =   0.0416667
        k(   41) = (   0.1666667   0.2500000   0.2500000), wk =   0.0416667
        k(   42) = (   0.1666667   0.2500000  -0.5000000), wk =   0.0416667
        k(   43) = (   0.1666667   0.3333333   0.0000000), wk =   0.0416667
        k(   44) = (   0.1666667   0.3333333   0.2500000), wk =   0.0416667
        k(   45) = (   0.1666667   0.3333333  -0.5000000), wk =   0.0416667
        k(   46) = (   0.1666667   0.4166667   0.0000000), wk =   0.0208333
        k(   47) = (   0.1666667   0.4166667   0.2500000), wk =   0.0416667
        k(   48) = (   0.1666667   0.4166667  -0.5000000), wk =   0.0208333
        k(   49) = (   0.2500000   0.2500000   0.0000000), wk =   0.0208333
        k(   50) = (   0.2500000   0.2500000   0.2500000), wk =   0.0416667
        k(   51) = (   0.2500000   0.2500000  -0.5000000), wk =   0.0208333
        k(   52) = (   0.2500000   0.3333333   0.0000000), wk =   0.0416667
        k(   53) = (   0.2500000   0.3333333   0.2500000), wk =   0.0416667
        k(   54) = (   0.2500000   0.3333333  -0.5000000), wk =   0.0416667
        k(   55) = (   0.3333333   0.3333333   0.0000000), wk =   0.0069444
        k(   56) = (   0.3333333   0.3333333   0.2500000), wk =   0.0138889
        k(   57) = (   0.3333333   0.3333333  -0.5000000), wk =   0.0069444
        k(   58) = (   0.0000000  -0.0833333   0.2500000), wk =   0.0208333
        k(   59) = (   0.0000000  -0.1666667   0.2500000), wk =   0.0208333
        k(   60) = (   0.0000000  -0.2500000   0.2500000), wk =   0.0208333
        k(   61) = (   0.0000000  -0.3333333   0.2500000), wk =   0.0208333
        k(   62) = (   0.0000000  -0.4166667   0.2500000), wk =   0.0208333
        k(   63) = (  -0.0833333  -0.1666667   0.2500000), wk =   0.0416667
        k(   64) = (  -0.0833333  -0.2500000   0.2500000), wk =   0.0416667
        k(   65) = (  -0.0833333  -0.3333333   0.2500000), wk =   0.0416667
        k(   66) = (  -0.0833333  -0.4166667   0.2500000), wk =   0.0416667
        k(   67) = (  -0.1666667  -0.2500000   0.2500000), wk =   0.0416667
        k(   68) = (  -0.1666667  -0.3333333   0.2500000), wk =   0.0416667
        k(   69) = (  -0.2500000  -0.3333333   0.2500000), wk =   0.0416667

     Dense  grid:    11513 G-vectors     FFT dimensions: (  27,  27,  36)

     Dynamical RAM for                 wfc:       0.09 MB

     Dynamical RAM for     wfc (w. buffer):       6.52 MB

     Dynamical RAM for           str. fact:       0.09 MB

     Dynamical RAM for           local pot:       0.00 MB

     Dynamical RAM for          nlocal pot:       0.34 MB

     Dynamical RAM for                qrad:       5.45 MB

     Dynamical RAM for          rho,v,vnew:       0.28 MB

     Dynamical RAM for               rhoin:       0.09 MB

     Dynamical RAM for            rho*nmix:       0.70 MB

     Dynamical RAM for           G-vectors:       0.19 MB

     Dynamical RAM for          h,s,v(r/c):       0.05 MB

     Dynamical RAM for          <psi|beta>:       0.02 MB

     Dynamical RAM for                 psi:       0.19 MB

     Dynamical RAM for                hpsi:       0.19 MB

     Dynamical RAM for                spsi:       0.19 MB

     Dynamical RAM for      wfcinit/wfcrot:       0.24 MB

     Dynamical RAM for           addusdens:      16.71 MB

     Dynamical RAM for          addusforce:      16.83 MB

     Dynamical RAM for         addusstress:      17.80 MB

     Estimated static dynamical RAM per process >      13.34 MB

     Estimated max dynamical RAM per process >      31.85 MB

     Estimated total dynamical RAM >     127.40 MB

     Initial potential from superposition of free atoms

     starting charge      25.8996, renormalised to      26.0000

     negative rho (up, down):  6.344E-02 0.000E+00
     Starting wfcs are   21 randomized atomic wfcs

     total cpu time spent up to now is      114.4 secs

     per-process dynamical memory:    23.4 Mb

     Self-consistent Calculation

     iteration #  1     ecut=    50.00 Ry     beta= 0.40
     Davidson diagonalization with overlap

---- Real-time Memory Report at c_bands before calling an iterative solver
            55 MiB given to the printing process from OS
            22 MiB allocation reported by mallinfo(arena+hblkhd)
        242114 MiB available memory on the node where the printing process lives
------------------
     ethr =  1.00E-02,  avg # of iterations =  4.4

     Threshold (ethr) on eigenvalues was too large:
     Diagonalizing with lowered threshold

     Davidson diagonalization with overlap

---- Real-time Memory Report at c_bands before calling an iterative solver
            64 MiB given to the printing process from OS
            40 MiB allocation reported by mallinfo(arena+hblkhd)
        242035 MiB available memory on the node where the printing process lives
------------------
     ethr =  2.32E-04,  avg # of iterations =  4.6

     negative rho (up, down):  6.483E-02 0.000E+00

     total cpu time spent up to now is      736.0 secs

     total energy              =    -206.90424639 Ry
     estimated scf accuracy    <       0.07138217 Ry

     iteration #  2     ecut=    50.00 Ry     beta= 0.40
     Davidson diagonalization with overlap

---- Real-time Memory Report at c_bands before calling an iterative solver
            64 MiB given to the printing process from OS
            40 MiB allocation reported by mallinfo(arena+hblkhd)
        241701 MiB available memory on the node where the printing process lives
------------------
     ethr =  2.75E-04,  avg # of iterations =  1.9

     negative rho (up, down):  6.634E-02 0.000E+00

     total cpu time spent up to now is      968.1 secs

     total energy              =    -206.90632542 Ry
     estimated scf accuracy    <       0.01031199 Ry

     iteration #  3     ecut=    50.00 Ry     beta= 0.40
     Davidson diagonalization with overlap

---- Real-time Memory Report at c_bands before calling an iterative solver
            64 MiB given to the printing process from OS
            40 MiB allocation reported by mallinfo(arena+hblkhd)
        241688 MiB available memory on the node where the printing process lives
------------------
     ethr =  3.97E-05,  avg # of iterations =  4.3

     negative rho (up, down):  6.715E-02 0.000E+00

     total cpu time spent up to now is     1265.9 secs

     total energy              =    -206.90783393 Ry
     estimated scf accuracy    <       0.00104610 Ry

     iteration #  4     ecut=    50.00 Ry     beta= 0.40
     Davidson diagonalization with overlap

---- Real-time Memory Report at c_bands before calling an iterative solver
            64 MiB given to the printing process from OS
            40 MiB allocation reported by mallinfo(arena+hblkhd)
        241682 MiB available memory on the node where the printing process lives
------------------
     ethr =  4.02E-06,  avg # of iterations =  5.1

     negative rho (up, down):  6.740E-02 0.000E+00

     total cpu time spent up to now is     1567.4 secs

     total energy              =    -206.90797418 Ry
     estimated scf accuracy    <       0.00021108 Ry

     iteration #  5     ecut=    50.00 Ry     beta= 0.40
     Davidson diagonalization with overlap

---- Real-time Memory Report at c_bands before calling an iterative solver
            64 MiB given to the printing process from OS
            40 MiB allocation reported by mallinfo(arena+hblkhd)
        241669 MiB available memory on the node where the printing process lives
------------------
     ethr =  8.12E-07,  avg # of iterations =  2.1

     negative rho (up, down):  6.745E-02 0.000E+00

     total cpu time spent up to now is     1822.2 secs

     total energy              =    -206.90800405 Ry
     estimated scf accuracy    <       0.00001991 Ry

     iteration #  6     ecut=    50.00 Ry     beta= 0.40
     Davidson diagonalization with overlap

---- Real-time Memory Report at c_bands before calling an iterative solver
            64 MiB given to the printing process from OS
            40 MiB allocation reported by mallinfo(arena+hblkhd)
        241667 MiB available memory on the node where the printing process lives
------------------
     ethr =  7.66E-08,  avg # of iterations =  4.1

     negative rho (up, down):  6.744E-02 0.000E+00

     total cpu time spent up to now is     2150.9 secs

     total energy              =    -206.90801113 Ry
     estimated scf accuracy    <       0.00000312 Ry

     iteration #  7     ecut=    50.00 Ry     beta= 0.40
     Davidson diagonalization with overlap

---- Real-time Memory Report at c_bands before calling an iterative solver
            64 MiB given to the printing process from OS
            40 MiB allocation reported by mallinfo(arena+hblkhd)
        241665 MiB available memory on the node where the printing process lives
------------------
     ethr =  1.20E-08,  avg # of iterations =  2.5

     negative rho (up, down):  6.740E-02 0.000E+00

     total cpu time spent up to now is     2432.7 secs

     total energy              =    -206.90801199 Ry
     estimated scf accuracy    <       0.00000010 Ry

     iteration #  8     ecut=    50.00 Ry     beta= 0.40
     Davidson diagonalization with overlap

---- Real-time Memory Report at c_bands before calling an iterative solver
            64 MiB given to the printing process from OS
            40 MiB allocation reported by mallinfo(arena+hblkhd)
        241667 MiB available memory on the node where the printing process lives
------------------
     ethr =  3.80E-10,  avg # of iterations =  4.8

     negative rho (up, down):  6.740E-02 0.000E+00

     total cpu time spent up to now is     2789.0 secs

     total energy              =    -206.90801206 Ry
     estimated scf accuracy    <       0.00000002 Ry

     iteration #  9     ecut=    50.00 Ry     beta= 0.40
     Davidson diagonalization with overlap

---- Real-time Memory Report at c_bands before calling an iterative solver
            64 MiB given to the printing process from OS
            40 MiB allocation reported by mallinfo(arena+hblkhd)
        241662 MiB available memory on the node where the printing process lives
------------------
     c_bands:  1 eigenvalues not converged
     ethr =  8.18E-11,  avg # of iterations =  2.8

     negative rho (up, down):  6.739E-02 0.000E+00

     total cpu time spent up to now is     3071.2 secs

     End of self-consistent calculation

          k = 0.0000 0.0000 0.0000 (  1421 PWs)   bands (ev):

   -54.3473 -18.8588 -18.8587 -18.7120   0.9680   8.0015   9.8153  12.7214
    12.7214  18.4828  18.4828  19.1045  19.1045  20.5847  21.4411  22.2340
    22.2340

     occupation numbers 
     1.0000   1.0000   1.0000   1.0000   1.0000   1.0000   1.0000   1.0000
     1.0000   1.0000   1.0000   1.0462   1.0462   0.0000   0.0000   0.0000
     0.0000

          k = 0.0000 0.0000 0.1956 (  1439 PWs)   bands (ev):

   -54.3472 -18.8582 -18.8582 -18.7250   1.5595   5.7599  12.2996  12.9223
    12.9223  17.6164  17.6164  18.4551  18.4551  18.7627  21.1052  24.0182
    24.0182

     occupation numbers 
     1.0000   1.0000   1.0000   1.0000   1.0000   1.0000   1.0000   1.0000
     1.0000   1.0000   1.0000   1.0000   1.0000   1.0006   0.0000   0.0000
     0.0000

          k = 0.0000 0.0000-0.3912 (  1458 PWs)   bands (ev):

   -54.3471 -18.8577 -18.8577 -18.7380   2.9438   3.5934  13.1613  13.1613
    15.4284  15.7728  17.0497  17.0497  17.7994  17.7994  20.9998  27.0581
    27.0588

     occupation numbers 
     1.0000   1.0000   1.0000   1.0000   1.0000   1.0000   1.0000   1.0000
     1.0000   1.0000   1.0000   1.0000   1.0000   1.0000   0.0000   0.0000
     0.0000

          k = 0.0000 0.0962 0.0000 (  1425 PWs)   bands (ev):

   -54.3459 -18.8907 -18.8658 -18.7062   1.1158   7.7792   9.9817  12.8222
    12.8566  17.5207  17.8137  19.0258  19.5760  20.2848  20.8095  22.4880
    22.8977

     occupation numbers 
     1.0000   1.0000   1.0000   1.0000   1.0000   1.0000   1.0000   1.0000
     1.0000   1.0000   1.0000   1.0233   0.5543   0.0000   0.0000   0.0000
     0.0000

          k = 0.0000 0.0962 0.1956 (  1444 PWs)   bands (ev):

   -54.3458 -18.8900 -18.8653 -18.7190   1.6950   5.7762  11.7305  13.1637
    13.4339  16.4593  17.2678  18.2969  18.8551  19.2747  21.4161  23.0357
    24.6924

     occupation numbers 
     1.0000   1.0000   1.0000   1.0000   1.0000   1.0000   1.0000   1.0000
     1.0000   1.0000   1.0000   1.0000   1.0027   1.0809   0.0000   0.0000
     0.0000

          k = 0.0000 0.0962-0.3912 (  1446 PWs)   bands (ev):

   -54.3457 -18.8892 -18.8646 -18.7317   2.9913   3.7562  12.6293  13.2199
    15.2443  16.1067  16.4462  16.5473  18.2500  18.6241  21.6246  25.6461
    26.2730

     occupation numbers 
     1.0000   1.0000   1.0000   1.0000   1.0000   1.0000   1.0000   1.0000
     1.0000   1.0000   1.0000   1.0000   1.0000   1.0000   0.0000   0.0000
     0.0000

          k = 0.0000 0.1925 0.0000 (  1438 PWs)   bands (ev):

   -54.3421 -18.9769 -18.8849 -18.6904   1.5435   7.2443  10.4590  13.0571
    13.0995  16.0662  16.9439  18.1795  19.3915  19.8790  21.1995  23.3351
    24.3024

     occupation numbers 
     1.0000   1.0000   1.0000   1.0000   1.0000   1.0000   1.0000   1.0000
     1.0000   1.0000   1.0000   1.0000   0.9879   0.0415   0.0000   0.0000
     0.0000

          k = 0.0000 0.1925 0.1956 (  1434 PWs)   bands (ev):

   -54.3420 -18.9757 -18.8843 -18.7023   2.0952   5.7409  11.2412  13.5927
    14.1270  15.5035  15.8431  18.1785  18.3433  20.0429  21.3615  23.9918
    25.8673

     occupation numbers 
     1.0000   1.0000   1.0000   1.0000   1.0000   1.0000   1.0000   1.0000
     1.0000   1.0000   1.0000   1.0000   1.0000   0.0039   0.0000   0.0000
     0.0000

          k = 0.0000 0.1925-0.3912 (  1444 PWs)   bands (ev):

   -54.3419 -18.9746 -18.8836 -18.7143   3.1276   4.2140  11.7814  13.2975
    13.9547  15.9772  16.1217  17.6158  18.4498  19.8069  22.6869  24.3444
    25.1106

     occupation numbers 
     1.0000   1.0000   1.0000   1.0000   1.0000   1.0000   1.0000   1.0000
     1.0000   1.0000   1.0000   1.0000   1.0000   0.0943   0.0000   0.0000
     0.0000

          k = 0.0000 0.2887 0.0000 (  1438 PWs)   bands (ev):

   -54.3368 -19.0922 -18.9108 -18.6687   2.2065   6.6087  11.1852  12.7133
    13.4832  15.2177  16.1810  17.0409  18.8305  20.0353  21.6888  24.6141
    25.7069

     occupation numbers 
     1.0000   1.0000   1.0000   1.0000   1.0000   1.0000   1.0000   1.0000
     1.0000   1.0000   1.0000   1.0000   1.0018   0.0044   0.0000   0.0000
     0.0000

          k = 0.0000 0.2887 0.1956 (  1431 PWs)   bands (ev):

   -54.3367 -19.0907 -18.9101 -18.6794   2.7274   5.5431  11.1850  14.0031
    14.3454  14.8303  14.9445  16.8144  18.3877  20.6310  21.5803  25.3605
    26.8547

     occupation numbers 
     1.0000   1.0000   1.0000   1.0000   1.0000   1.0000   1.0000   1.0000
     1.0000   1.0000   1.0000   1.0000   1.0000   0.0000   0.0000   0.0000
     0.0000

          k = 0.0000 0.2887-0.3912 (  1442 PWs)   bands (ev):

   -54.3366 -19.0891 -18.9095 -18.6904   3.3287   4.8779  11.1553  12.4224
    13.1955  16.1098  16.4785  18.1553  18.7226  20.9118  22.3156  24.0070
    24.7690

     occupation numbers 
     1.0000   1.0000   1.0000   1.0000   1.0000   1.0000   1.0000   1.0000
     1.0000   1.0000   1.0000   1.0000   1.0003   0.0000   0.0000   0.0000
     0.0000

          k = 0.0000 0.3849 0.0000 (  1438 PWs)   bands (ev):

   -54.3316 -19.2052 -18.9366 -18.6468   3.0325   5.9918  11.6020  12.0850
    13.8816  15.3539  15.5660  16.0011  18.4066  20.3214  22.0889  25.7659
    26.0165

     occupation numbers 
     1.0000   1.0000   1.0000   1.0000   1.0000   1.0000   1.0000   1.0000
     1.0000   1.0000   1.0000   1.0000   1.0000   0.0000   0.0000   0.0000
     0.0000

          k = 0.0000 0.3849 0.1956 (  1436 PWs)   bands (ev):

   -54.3315 -19.2032 -18.9359 -18.6565   3.5254   5.2054  11.3479  13.1569
    13.7810  15.1510  15.3284  15.8467  18.5692  21.0041  21.7558  26.2339
    26.9411

     occupation numbers 
     1.0000   1.0000   1.0000   1.0000   1.0000   1.0000   1.0000   1.0000
     1.0000   1.0000   1.0000   1.0000   1.0000   0.0000   0.0000   0.0000
     0.0000

          k = 0.0000 0.3849-0.3912 (  1442 PWs)   bands (ev):

   -54.3314 -19.2012 -18.9352 -18.6664   3.5470   5.6090  10.8198  11.1631
    12.9488  16.5916  16.7732  18.2210  18.8036  21.5366  21.9811  23.2137
    24.5079

     occupation numbers 
     1.0000   1.0000   1.0000   1.0000   1.0000   1.0000   1.0000   1.0000
     1.0000   1.0000   1.0000   1.0000   1.0012   0.0000   0.0000   0.0000
     0.0000

          k = 0.0000 0.4811 0.0000 (  1428 PWs)   bands (ev):

   -54.3277 -19.2863 -18.9553 -18.6306   3.9157   5.3990  10.6102  12.9678
    14.2255  14.8091  15.1057  16.1897  18.1018  20.7339  21.8051  25.9481
    27.1793

     occupation numbers 
     1.0000   1.0000   1.0000   1.0000   1.0000   1.0000   1.0000   1.0000
     1.0000   1.0000   1.0000   1.0000   1.0000   0.0000   0.0000   0.0000
     0.0000

          k = 0.0000 0.4811 0.1956 (  1440 PWs)   bands (ev):

   -54.3276 -19.2841 -18.9547 -18.6397   4.2133   5.0330  11.0770  12.1898
    13.4134  15.2271  16.0557  16.1001  18.8215  21.1353  21.7528  25.3845
    25.7047

     occupation numbers 
     1.0000   1.0000   1.0000   1.0000   1.0000   1.0000   1.0000   1.0000
     1.0000   1.0000   1.0000   1.0000   1.0016   0.0000   0.0000   0.0000
     0.0000

          k = 0.0000 0.4811-0.3912 (  1446 PWs)   bands (ev):

   -54.3275 -19.2819 -18.9539 -18.6487   3.7176   6.2319   9.9905  11.0874
    12.7388  16.0798  17.6357  18.3092  19.0587  21.1384  21.7579  23.1980
    23.9509

     occupation numbers 
     1.0000   1.0000   1.0000   1.0000   1.0000   1.0000   1.0000   1.0000
     1.0000   1.0000   1.0000   1.0000   1.0319   0.0000   0.0000   0.0000
     0.0000

          k = 0.0000-0.5774 0.0000 (  1438 PWs)   bands (ev):

   -54.3263 -19.3158 -18.9622 -18.6248   4.6596   4.8003  10.2085  13.7084
    14.0449  14.4170  14.8754  16.5980  17.9558  20.9583  21.4043  26.8218
    27.2703

     occupation numbers 
     1.0000   1.0000   1.0000   1.0000   1.0000   1.0000   1.0000   1.0000
     1.0000   1.0000   1.0000   1.0000   1.0000   0.0000   0.0000   0.0000
     0.0000

          k = 0.0000-0.5774 0.1956 (  1444 PWs)   bands (ev):

   -54.3262 -19.3135 -18.9615 -18.6335   4.0469   5.7172  10.3613  11.4942
    13.1742  15.8305  16.7126  16.7130  19.0660  20.9112  21.4825  24.8053
    25.1256

     occupation numbers 
     1.0000   1.0000   1.0000   1.0000   1.0000   1.0000   1.0000   1.0000
     1.0000   1.0000   1.0000   1.0000   1.0340   0.0000   0.0000   0.0000
     0.0000

          k = 0.0000-0.5774-0.3912 (  1440 PWs)   bands (ev):

   -54.3261 -19.3111 -18.9608 -18.6422   3.7821   6.5042   9.5848  11.2133
    12.6608  15.7208  18.1261  18.3600  19.2946  20.7005  21.5818  23.3151
    23.7466

     occupation numbers 
     1.0000   1.0000   1.0000   1.0000   1.0000   1.0000   1.0000   1.0000
     1.0000   1.0000   1.0000   1.0000   1.0754   0.0000   0.0000   0.0000
     0.0000

          k = 0.0833 0.1443 0.0000 (  1437 PWs)   bands (ev):

   -54.3433 -18.9481 -18.8805 -18.6954   1.4036   7.4075  10.2992  13.0057
    13.0344  16.5595  16.9355  18.7747  18.9814  20.4434  21.0530  22.7084
    23.8789

     occupation numbers 
     1.0000   1.0000   1.0000   1.0000   1.0000   1.0000   1.0000   1.0000
     1.0000   1.0000   1.0000   1.0007   1.0145   0.0000   0.0000   0.0000
     0.0000

          k = 0.0833 0.1443 0.1956 (  1432 PWs)   bands (ev):

   -54.3432 -18.9469 -18.8799 -18.7076   1.9467   5.8350  11.3025  13.1216
    14.1590  15.0852  16.8233  18.6511  18.9829  19.7025  21.4703  23.3028
    24.7299

     occupation numbers 
     1.0000   1.0000   1.0000   1.0000   1.0000   1.0000   1.0000   1.0000
     1.0000   1.0000   1.0000   1.0001   1.0148   0.2461   0.0000   0.0000
     0.0000

          k = 0.0833 0.1443-0.3912 (  1446 PWs)   bands (ev):

   -54.3431 -18.9460 -18.8793 -18.7198   3.0848   4.0653  12.0107  13.1672
    14.7403  15.5401  16.1762  17.3463  18.7478  19.2447  22.4946  24.6859
    25.1408

     occupation numbers 
     1.0000   1.0000   1.0000   1.0000   1.0000   1.0000   1.0000   1.0000
     1.0000   1.0000   1.0000   1.0000   1.0004   1.0833   0.0000   0.0000
     0.0000

          k = 0.0833 0.2406 0.0000 (  1443 PWs)   bands (ev):

   -54.3388 -19.0445 -18.9074 -18.6767   1.9500   6.8474  10.8816  13.0486
    13.3066  15.2432  16.2707  17.6823  18.7662  20.6036  21.4913  23.4004
    25.3935

     occupation numbers 
     1.0000   1.0000   1.0000   1.0000   1.0000   1.0000   1.0000   1.0000
     1.0000   1.0000   1.0000   1.0000   1.0006   0.0000   0.0000   0.0000
     0.0000

          k = 0.0833 0.2406 0.1956 (  1434 PWs)   bands (ev):

   -54.3387 -19.0431 -18.9067 -18.6878   2.4520   5.7441  11.0847  13.4199
    14.3830  14.6254  15.7745  17.5753  18.8734  20.2745  21.5738  24.6322
    26.1303

     occupation numbers 
     1.0000   1.0000   1.0000   1.0000   1.0000   1.0000   1.0000   1.0000
     1.0000   1.0000   1.0000   1.0000   1.0035   0.0000   0.0000   0.0000
     0.0000

          k = 0.0833 0.2406-0.3912 (  1446 PWs)   bands (ev):

   -54.3386 -19.0417 -18.9060 -18.6992   3.2620   4.6189  11.3529  12.5601
    14.0212  15.2802  16.4476  18.1305  18.9633  20.3140  22.6182  23.9147
    24.7909

     occupation numbers 
     1.0000   1.0000   1.0000   1.0000   1.0000   1.0000   1.0000   1.0000
     1.0000   1.0000   1.0000   1.0000   1.0117   0.0000   0.0000   0.0000
     0.0000

          k = 0.0833 0.3368 0.0000 (  1437 PWs)   bands (ev):

   -54.3335 -19.1535 -18.9383 -18.6548   2.6977   6.2577  11.6257  12.3052
    13.6132  14.6616  15.8034  16.7649  18.6582  20.5750  21.9409  24.5410
    26.4668

     occupation numbers 
     1.0000   1.0000   1.0000   1.0000   1.0000   1.0000   1.0000   1.0000
     1.0000   1.0000   1.0000   1.0000   1.0001   0.0000   0.0000   0.0000
     0.0000

          k = 0.0833 0.3368 0.1956 (  1432 PWs)   bands (ev):

   -54.3334 -19.1517 -18.9375 -18.6649   3.1588   5.4739  11.2350  12.9962
    14.3088  14.5036  15.5901  16.3498  18.9262  20.6717  21.8140  25.9817
    26.0706

     occupation numbers 
     1.0000   1.0000   1.0000   1.0000   1.0000   1.0000   1.0000   1.0000
     1.0000   1.0000   1.0000   1.0000   1.0074   0.0000   0.0000   0.0000
     0.0000

          k = 0.0833 0.3368-0.3912 (  1438 PWs)   bands (ev):

   -54.3333 -19.1499 -18.9367 -18.6751   3.4913   5.2940  10.9423  11.5173
    13.3671  15.8418  16.6762  18.3151  19.1290  21.1025  21.8473  23.7371
    25.2546

     occupation numbers 
     1.0000   1.0000   1.0000   1.0000   1.0000   1.0000   1.0000   1.0000
     1.0000   1.0000   1.0000   1.0000   1.0546   0.0000   0.0000   0.0000
     0.0000

          k = 0.0833 0.4330 0.0000 (  1434 PWs)   bands (ev):

   -54.3289 -19.2461 -18.9649 -18.6358   3.5582   5.6979  11.1313  12.4477
    13.8220  14.5392  15.4268  16.3913  18.6635  20.7132  21.9305  25.4001
    26.6401

     occupation numbers 
     1.0000   1.0000   1.0000   1.0000   1.0000   1.0000   1.0000   1.0000
     1.0000   1.0000   1.0000   1.0000   1.0001   0.0000   0.0000   0.0000
     0.0000

          k = 0.0833 0.4330 0.1956 (  1437 PWs)   bands (ev):

   -54.3288 -19.2440 -18.9641 -18.6451   3.9578   5.1420  11.3095  12.2681
    13.6875  14.6846  15.8550  16.1726  19.1378  20.9678  21.7147  25.3751
    26.9137

     occupation numbers 
     1.0000   1.0000   1.0000   1.0000   1.0000   1.0000   1.0000   1.0000
     1.0000   1.0000   1.0000   1.0000   1.0576   0.0000   0.0000   0.0000
     0.0000

          k = 0.0833 0.4330-0.3912 (  1434 PWs)   bands (ev):

   -54.3287 -19.2418 -18.9633 -18.6543   3.7140   5.9204  10.4292  11.0024
    12.9483  16.3208  16.7122  18.2925  19.1689  21.3119  21.4849  23.8260
    24.4957

     occupation numbers 
     1.0000   1.0000   1.0000   1.0000   1.0000   1.0000   1.0000   1.0000
     1.0000   1.0000   1.0000   1.0000   1.0680   0.0000   0.0000   0.0000
     0.0000

          k = 0.0833 0.5292 0.0000 (  1445 PWs)   bands (ev):

   -54.3263 -19.2989 -18.9803 -18.6249   4.4038   5.1195  10.3749  13.1023
    13.8360  14.2741  15.1758  16.6343  18.6792  20.9653  21.3383  26.1830
    27.1674

     occupation numbers 
     1.0000   1.0000   1.0000   1.0000   1.0000   1.0000   1.0000   1.0000
     1.0000   1.0000   1.0000   1.0000   1.0001   0.0000   0.0000   0.0000
     0.0000

          k = 0.0833 0.5292 0.1956 (  1441 PWs)   bands (ev):

   -54.3262 -19.2966 -18.9794 -18.6336   4.2788   5.3224  10.7511  11.6946
    13.2488  15.1766  16.2712  16.6551  19.3234  20.9957  21.4934  24.9212
    25.7691

     occupation numbers 
     1.0000   1.0000   1.0000   1.0000   1.0000   1.0000   1.0000   1.0000
     1.0000   1.0000   1.0000   1.0000   1.0606   0.0000   0.0000   0.0000
     0.0000

          k = 0.0833 0.5292-0.3912 (  1442 PWs)   bands (ev):

   -54.3261 -19.2943 -18.9786 -18.6422   3.8542   6.3156   9.8230  11.1725
    12.7469  15.7219  17.4684  18.4622  18.9421  21.1378  21.5809  23.6481
    24.0930

     occupation numbers 
     1.0000   1.0000   1.0000   1.0000   1.0000   1.0000   1.0000   1.0000
     1.0000   1.0000   1.0000   1.0000   1.0090   0.0000   0.0000   0.0000
     0.0000

          k = 0.1667 0.2887 0.0000 (  1433 PWs)   bands (ev):

   -54.3342 -19.1268 -18.9469 -18.6577   2.5834   6.3707  11.4485  12.8692
    13.3076  14.2002  15.8347  17.3153  18.4907  21.4552  21.7172  23.5025
    26.8156

     occupation numbers 
     1.0000   1.0000   1.0000   1.0000   1.0000   1.0000   1.0000   1.0000
     1.0000   1.0000   1.0000   1.0000   1.0000   0.0000   0.0000   0.0000
     0.0000

          k = 0.1667 0.2887 0.1956 (  1441 PWs)   bands (ev):

   -54.3341 -19.1251 -18.9461 -18.6681   2.9430   5.8662  10.9474  12.3874
    13.5707  14.9876  16.4129  17.1219  19.2730  20.7113  21.9477  24.8856
    25.5675

     occupation numbers 
     1.0000   1.0000   1.0000   1.0000   1.0000   1.0000   1.0000   1.0000
     1.0000   1.0000   1.0000   1.0000   1.0813   0.0000   0.0000   0.0000
     0.0000

          k = 0.1667 0.2887-0.3912 (  1434 PWs)   bands (ev):

   -54.3340 -19.1234 -18.9452 -18.6783   3.4853   5.1657  10.9847  11.5868
    14.0737  14.9126  16.6945  18.4122  19.4508  20.7251  21.7772  23.9258
    25.4002

     occupation numbers 
     1.0000   1.0000   1.0000   1.0000   1.0000   1.0000   1.0000   1.0000
     1.0000   1.0000   1.0000   1.0000   0.8787   0.0000   0.0000   0.0000
     0.0000

          k = 0.1667 0.3849 0.0000 (  1429 PWs)   bands (ev):

   -54.3296 -19.2034 -18.9905 -18.6388   3.3727   5.9058  11.8027  12.1439
    12.9944  14.1259  15.5185  17.1535  18.8027  21.4302  21.9199  24.3196
    26.5188

     occupation numbers 
     1.0000   1.0000   1.0000   1.0000   1.0000   1.0000   1.0000   1.0000
     1.0000   1.0000   1.0000   1.0000   1.0012   0.0000   0.0000   0.0000
     0.0000

          k = 0.1667 0.3849 0.1956 (  1433 PWs)   bands (ev):

   -54.3295 -19.2016 -18.9895 -18.6482   3.6578   5.5537  11.2625  11.8148
    13.4722  14.7256  16.1364  16.6185  19.5569  20.8783  21.6831  25.3684
    26.1691

     occupation numbers 
     1.0000   1.0000   1.0000   1.0000   1.0000   1.0000   1.0000   1.0000
     1.0000   1.0000   1.0000   1.0000   0.6071   0.0000   0.0000   0.0000
     0.0000

          k = 0.1667 0.3849-0.3912 (  1432 PWs)   bands (ev):

   -54.3295 -19.1996 -18.9886 -18.6575   3.7653   5.6692  10.7553  10.9234
    13.4156  15.5228  16.6160  18.1900  19.5635  20.9494  21.2882  24.7513
    25.7121

     occupation numbers 
     1.0000   1.0000   1.0000   1.0000   1.0000   1.0000   1.0000   1.0000
     1.0000   1.0000   1.0000   1.0000   0.5889   0.0000   0.0000   0.0000
     0.0000

          k = 0.1667 0.4811 0.0000 (  1450 PWs)   bands (ev):

   -54.3263 -19.2575 -19.0238 -18.6251   4.2025   5.4555  10.8598  12.3579
    12.9067  14.2870  15.4009  17.1908  19.3535  21.0848  21.5821  25.3006
    26.5928

     occupation numbers 
     1.0000   1.0000   1.0000   1.0000   1.0000   1.0000   1.0000   1.0000
     1.0000   1.0000   1.0000   1.0000   1.0354   0.0000   0.0000   0.0000
     0.0000

          k = 0.1667 0.4811 0.1956 (  1443 PWs)   bands (ev):

   -54.3262 -19.2554 -19.0227 -18.6337   4.3444   5.2779  11.1066  11.5753
    13.0255  14.7385  16.0888  16.8488  19.7842  20.8567  21.4096  25.2092
    26.7578

     occupation numbers 
     1.0000   1.0000   1.0000   1.0000   1.0000   1.0000   1.0000   1.0000
     1.0000   1.0000   1.0000   1.0000   0.1189   0.0000   0.0000   0.0000
     0.0000

          k = 0.1667 0.4811-0.3912 (  1428 PWs)   bands (ev):

   -54.3261 -19.2532 -19.0217 -18.6423   4.0244   5.9502  10.3225  11.0451
    12.9890  15.5456  16.6913  17.8850  19.3535  21.2120  21.3180  24.8243
    25.1031

     occupation numbers 
     1.0000   1.0000   1.0000   1.0000   1.0000   1.0000   1.0000   1.0000
     1.0000   1.0000   1.0000   1.0000   1.0354   0.0000   0.0000   0.0000
     0.0000

          k = 0.1667 0.5774 0.0000 (  1448 PWs)   bands (ev):

   -54.3251 -19.2769 -19.0362 -18.6200   4.8980   4.9429  10.4371  12.4520
    12.8792  14.3036  15.4720  17.2867  19.5075  21.1319  21.1462  26.1372
    26.1800

     occupation numbers 
     1.0000   1.0000   1.0000   1.0000   1.0000   1.0000   1.0000   1.0000
     1.0000   1.0000   1.0000   1.0000   0.7415   0.0000   0.0000   0.0000
     0.0000

          k = 0.1667 0.5774 0.1956 (  1448 PWs)   bands (ev):

   -54.3250 -19.2747 -19.0351 -18.6284   4.3651   5.6060  10.5579  11.3631
    12.8150  15.2412  16.2575  17.1935  19.3235  21.1361  21.4862  24.9315
    26.1317

     occupation numbers 
     1.0000   1.0000   1.0000   1.0000   1.0000   1.0000   1.0000   1.0000
     1.0000   1.0000   1.0000   1.0000   1.0606   0.0000   0.0000   0.0000
     0.0000

          k = 0.1667 0.5774-0.3912 (  1428 PWs)   bands (ev):

   -54.3249 -19.2725 -19.0339 -18.6367   4.1368   6.0170  10.1622  11.2115
    12.8569  15.1909  17.1122  17.6462  19.2011  21.3021  21.4345  24.6811
    24.8688

     occupation numbers 
     1.0000   1.0000   1.0000   1.0000   1.0000   1.0000   1.0000   1.0000
     1.0000   1.0000   1.0000   1.0000   1.0771   0.0000   0.0000   0.0000
     0.0000

          k = 0.2500 0.4330 0.0000 (  1445 PWs)   bands (ev):

   -54.3263 -19.2294 -19.0529 -18.6251   4.1333   5.5964  11.4198  11.9655
    12.1969  14.4845  15.2581  17.6908  19.2592  21.0866  22.2595  24.6641
    26.2109

     occupation numbers 
     1.0000   1.0000   1.0000   1.0000   1.0000   1.0000   1.0000   1.0000
     1.0000   1.0000   1.0000   1.0000   1.0830   0.0000   0.0000   0.0000
     0.0000

          k = 0.2500 0.4330 0.1956 (  1441 PWs)   bands (ev):

   -54.3262 -19.2274 -19.0517 -18.6338   4.1368   5.6698  10.9888  11.2764
    12.7105  15.1955  16.0238  17.2297  19.5472  21.0054  21.5935  25.7299
    25.9389

     occupation numbers 
     1.0000   1.0000   1.0000   1.0000   1.0000   1.0000   1.0000   1.0000
     1.0000   1.0000   1.0000   1.0000   0.6339   0.0000   0.0000   0.0000
     0.0000

          k = 0.2500 0.4330-0.3912 (  1422 PWs)   bands (ev):

   -54.3261 -19.2253 -19.0505 -18.6424   4.1296   5.7606  10.6998  10.8483
    13.1851  15.2249  16.5357  17.6457  19.6209  20.9034  21.3471  25.7169
    26.0501

     occupation numbers 
     1.0000   1.0000   1.0000   1.0000   1.0000   1.0000   1.0000   1.0000
     1.0000   1.0000   1.0000   1.0000   0.4333   0.0000   0.0000   0.0000
     0.0000

          k = 0.2500 0.5292 0.0000 (  1446 PWs)   bands (ev):

   -54.3244 -19.2328 -19.1004 -18.6171   4.8096   5.2912  10.7464  11.8563
    11.9957  14.8253  15.2967  17.9962  19.2667  21.1421  22.0152  25.4347
    26.1276

     occupation numbers 
     1.0000   1.0000   1.0000   1.0000   1.0000   1.0000   1.0000   1.0000
     1.0000   1.0000   1.0000   1.0000   1.0822   0.0000   0.0000   0.0000
     0.0000

          k = 0.2500 0.5292 0.1956 (  1440 PWs)   bands (ev):

   -54.3243 -19.2308 -19.0990 -18.6255   4.6942   5.3558  10.9499  11.3835
    12.1446  15.3568  16.0821  16.9805  19.5218  20.9706  21.6400  25.6390
    26.6180

     occupation numbers 
     1.0000   1.0000   1.0000   1.0000   1.0000   1.0000   1.0000   1.0000
     1.0000   1.0000   1.0000   1.0000   0.7033   0.0000   0.0000   0.0000
     0.0000

          k = 0.2500 0.5292-0.3912 (  1430 PWs)   bands (ev):

   -54.3242 -19.2288 -19.0976 -18.6337   4.4760   5.5876  10.7372  11.1163
    12.9832  14.6226  16.7903  17.1726  19.6225  21.0280  21.2631  25.8716
    26.3770

     occupation numbers 
     1.0000   1.0000   1.0000   1.0000   1.0000   1.0000   1.0000   1.0000
     1.0000   1.0000   1.0000   1.0000   0.4293   0.0000   0.0000   0.0000
     0.0000

          k = 0.3333 0.5774 0.0000 (  1449 PWs)   bands (ev):

   -54.3237 -19.1762 -19.1762 -18.6143   5.1552   5.1554  10.6862  11.6455
    11.6458  15.2081  15.2084  18.3381  18.8643  21.7945  21.7951  25.8036
    25.8037

     occupation numbers 
     1.0000   1.0000   1.0000   1.0000   1.0000   1.0000   1.0000   1.0000
     1.0000   1.0000   1.0000   1.0000   1.0031   0.0000   0.0000   0.0000
     0.0000

          k = 0.3333 0.5774 0.1956 (  1440 PWs)   bands (ev):

   -54.3236 -19.1745 -19.1744 -18.6224   5.0925   5.0927  11.3401  11.3402
    11.4151  16.0475  16.0476  16.3801  19.4839  21.3705  21.3709  26.3326
    26.3328

     occupation numbers 
     1.0000   1.0000   1.0000   1.0000   1.0000   1.0000   1.0000   1.0000
     1.0000   1.0000   1.0000   1.0000   0.8017   0.0000   0.0000   0.0000
     0.0000

          k = 0.3333 0.5774-0.3912 (  1428 PWs)   bands (ev):

   -54.3235 -19.1727 -19.1727 -18.6305   5.0299   5.0300  11.1187  11.1187
    12.9729  14.1102  16.8666  16.8670  19.8365  21.0071  21.0072  27.0515
    27.0520

     occupation numbers 
     1.0000   1.0000   1.0000   1.0000   1.0000   1.0000   1.0000   1.0000
     1.0000   1.0000   1.0000   1.0000   0.0684   0.0000   0.0000   0.0000
     0.0000

          k = 0.0000-0.0962 0.1956 (  1444 PWs)   bands (ev):

   -54.3458 -18.8900 -18.8653 -18.7190   1.6888   5.8041  11.7552  12.8696
    13.6456  16.0105  17.7408  18.5778  18.9158  19.2076  21.5756  22.8328
    24.1202

     occupation numbers 
     1.0000   1.0000   1.0000   1.0000   1.0000   1.0000   1.0000   1.0000
     1.0000   1.0000   1.0000   1.0000   1.0064   1.0785   0.0000   0.0000
     0.0000

          k = 0.0000-0.1925 0.1956 (  1434 PWs)   bands (ev):

   -54.3420 -18.9757 -18.8842 -18.7023   2.0429   5.9616  11.1083  12.9332
    14.0893  14.5826  17.2807  18.7419  19.2891  20.2070  21.9575  22.3644
    24.4577

     occupation numbers 
     1.0000   1.0000   1.0000   1.0000   1.0000   1.0000   1.0000   1.0000
     1.0000   1.0000   1.0000   1.0004   1.0773   0.0002   0.0000   0.0000
     0.0000

          k = 0.0000-0.2887 0.1956 (  1431 PWs)   bands (ev):

   -54.3367 -19.0906 -18.9101 -18.6795   2.5419   6.2268  10.6238  12.4311
    13.0061  15.3198  17.1459  18.7361  19.2153  20.6276  22.2257  22.8831
    24.6979

     occupation numbers 
     1.0000   1.0000   1.0000   1.0000   1.0000   1.0000   1.0000   1.0000
     1.0000   1.0000   1.0000   1.0004   1.0800   0.0000   0.0000   0.0000
     0.0000

          k = 0.0000-0.3849 0.1956 (  1436 PWs)   bands (ev):

   -54.3315 -19.2031 -18.9359 -18.6566   3.0868   6.4895  10.2448  11.2756
    13.0350  15.9709  17.2141  18.1438  19.3218  20.3686  22.3993  23.4024
    24.6774

     occupation numbers 
     1.0000   1.0000   1.0000   1.0000   1.0000   1.0000   1.0000   1.0000
     1.0000   1.0000   1.0000   1.0000   1.0617   0.0000   0.0000   0.0000
     0.0000

          k = 0.0000-0.4811 0.1956 (  1440 PWs)   bands (ev):

   -54.3276 -19.2840 -18.9547 -18.6397   3.6006   6.3963   9.9680  11.0927
    13.0651  16.2462  17.1333  17.4210  19.2604  20.4920  21.5459  24.3140
    24.9274

     occupation numbers 
     1.0000   1.0000   1.0000   1.0000   1.0000   1.0000   1.0000   1.0000
     1.0000   1.0000   1.0000   1.0000   1.0829   0.0000   0.0000   0.0000
     0.0000

          k =-0.0833-0.2406 0.1956 (  1434 PWs)   bands (ev):

   -54.3387 -19.0431 -18.9067 -18.6878   2.3844   6.0083  10.8766  12.9584
    13.4445  14.9320  16.7799  18.4354  19.1329  20.5496  21.6754  23.6117
    24.9479

     occupation numbers 
     1.0000   1.0000   1.0000   1.0000   1.0000   1.0000   1.0000   1.0000
     1.0000   1.0000   1.0000   1.0000   1.0559   0.0000   0.0000   0.0000
     0.0000

          k =-0.0833-0.3368 0.1956 (  1432 PWs)   bands (ev):

   -54.3334 -19.1516 -18.9375 -18.6650   2.9156   6.2616  10.5553  11.7555
    13.1200  15.5692  16.9036  18.3611  18.7517  20.9943  22.3398  23.5339
    24.9461

     occupation numbers 
     1.0000   1.0000   1.0000   1.0000   1.0000   1.0000   1.0000   1.0000
     1.0000   1.0000   1.0000   1.0000   1.0005   0.0000   0.0000   0.0000
     0.0000

          k =-0.0833-0.4330 0.1956 (  1437 PWs)   bands (ev):

   -54.3288 -19.2439 -18.9641 -18.6451   3.4469   6.4017  10.1834  11.0983
    13.0474  16.1283  16.6868  17.9708  18.8851  20.9858  21.8858  23.9448
    25.1733

     occupation numbers 
     1.0000   1.0000   1.0000   1.0000   1.0000   1.0000   1.0000   1.0000
     1.0000   1.0000   1.0000   1.0000   1.0042   0.0000   0.0000   0.0000
     0.0000

          k =-0.0833-0.5292 0.1956 (  1441 PWs)   bands (ev):

   -54.3262 -19.2966 -18.9794 -18.6336   3.9244   6.0520  10.1539  11.2419
    13.0650  15.9422  16.5423  17.2835  19.2190  20.9499  21.3998  24.5183
    25.3983

     occupation numbers 
     1.0000   1.0000   1.0000   1.0000   1.0000   1.0000   1.0000   1.0000
     1.0000   1.0000   1.0000   1.0000   1.0807   0.0000   0.0000   0.0000
     0.0000

          k =-0.1667-0.3849 0.1956 (  1433 PWs)   bands (ev):

   -54.3295 -19.2015 -18.9895 -18.6482   3.4713   6.0466  10.7740  11.3317
    13.1285  15.4821  16.3252  17.5266  19.0794  21.3649  21.7935  24.6741
    25.5215

     occupation numbers 
     1.0000   1.0000   1.0000   1.0000   1.0000   1.0000   1.0000   1.0000
     1.0000   1.0000   1.0000   1.0000   1.0380   0.0000   0.0000   0.0000
     0.0000

          k =-0.1667-0.4811 0.1956 (  1443 PWs)   bands (ev):

   -54.3262 -19.2553 -19.0227 -18.6338   3.9617   6.0358  10.3833  11.1706
    12.8733  15.7539  16.1315  17.5936  19.0598  21.2018  21.7086  24.6982
    26.0937

     occupation numbers 
     1.0000   1.0000   1.0000   1.0000   1.0000   1.0000   1.0000   1.0000
     1.0000   1.0000   1.0000   1.0000   1.0322   0.0000   0.0000   0.0000
     0.0000

          k =-0.2500-0.5292 0.1956 (  1440 PWs)   bands (ev):

   -54.3243 -19.2308 -19.0990 -18.6255   4.5575   5.5576  10.7866  11.2902
    12.2181  15.5482  16.0701  17.0491  19.3502  21.0986  21.6849  25.7002
    26.2644

     occupation numbers 
     1.0000   1.0000   1.0000   1.0000   1.0000   1.0000   1.0000   1.0000
     1.0000   1.0000   1.0000   1.0000   1.0387   0.0000   0.0000   0.0000
     0.0000

     the Fermi energy is    19.6337 ev

!    total energy              =    -206.90801207 Ry
     estimated scf accuracy    <          2.7E-10 Ry
     smearing contrib. (-TS)   =       0.00141208 Ry
     internal energy E=F+TS    =    -206.90942415 Ry

     The total energy is F=E-TS. E is the sum of the following terms:
     one-electron contribution =     -13.68836621 Ry
     hartree contribution      =      25.37662849 Ry
     xc contribution           =     -58.82008205 Ry
     ewald contribution        =    -159.77760438 Ry

     convergence has been achieved in   9 iterations

     negative rho (up, down):  6.739E-02 0.000E+00

     Forces acting on atoms (cartesian axes, Ry/au):

     atom    1 type  2   force =     0.00000000    0.00000000   -0.00008260
     atom    2 type  1   force =     0.00000000    0.00000000    0.16173606
     atom    3 type  1   force =     0.00000000   -0.00000000   -0.16165346
     The non-local contrib.  to forces
     atom    1 type  2   force =     0.00000000    0.00000000   -0.00001512
     atom    2 type  1   force =     0.00000000    0.00000000    0.02943873
     atom    3 type  1   force =     0.00000000    0.00000000   -0.02933883
     The ionic contribution  to forces
     atom    1 type  2   force =     0.00002478   -0.00001431   -0.00062886
     atom    2 type  1   force =    -0.00000639    0.00000369    6.45850840
     atom    3 type  1   force =    -0.00001839    0.00001062   -6.45787954
     The local contribution  to forces
     atom    1 type  2   force =     0.00012934   -0.00007468    0.00055654
     atom    2 type  1   force =     0.00000000   -0.00000000   -6.31770573
     atom    3 type  1   force =    -0.00000611    0.00000353    6.31706828
     The core correction contribution to forces
     atom    1 type  2   force =    -0.00000089    0.00000051    0.00000143
     atom    2 type  1   force =     0.00000000   -0.00000000   -0.00851747
     atom    3 type  1   force =     0.00000110   -0.00000063    0.00850957
     The Hubbard contrib.    to forces
     atom    1 type  2   force =     0.00000000    0.00000000    0.00000000
     atom    2 type  1   force =     0.00000000    0.00000000    0.00000000
     atom    3 type  1   force =     0.00000000    0.00000000    0.00000000
     The SCF correction term to forces
     atom    1 type  2   force =    -0.00000001    0.00000000    0.00000333
     atom    2 type  1   force =     0.00000000   -0.00000000    0.00001205
     atom    3 type  1   force =     0.00000000   -0.00000000   -0.00001303

     Total force =     0.228671     Total SCF correction =     0.000018


     Computing stress (Cartesian axis) and pressure


     negative rho (up, down):  6.739E-02 0.000E+00
          total   stress  (Ry/bohr**3)                   (kbar)     P=      944.28
   0.00522999  -0.00000000   0.00000000          769.36       -0.00        0.00
  -0.00000000   0.00522999   0.00000000           -0.00      769.36        0.00
   0.00000000   0.00000000   0.00879734            0.00        0.00     1294.13

     kinetic stress (kbar)  26114.09      0.00     -0.00
                                0.00  26114.09      0.00
                               -0.00      0.00  27377.54

     local   stress (kbar)   6037.54     -0.01     -0.00
                               -0.01   6037.53      0.00
                               -0.00      0.00  25431.03

     nonloc. stress (kbar)  -3317.98      0.00      0.00
                                0.00  -3317.98     -0.00
                                0.00     -0.00  -3529.37

     hartree stress (kbar)   7708.92     -0.00     -0.00
                               -0.00   7708.92      0.00
                               -0.00      0.00     80.78

     exc-cor stress (kbar)  13396.63      0.00      0.00
                                0.00  13396.63     -0.00
                                0.00     -0.00  13400.13

     corecor stress (kbar) -20737.88     -0.00     -0.00
                               -0.00 -20737.88      0.00
                               -0.00      0.00 -20746.67

     ewald   stress (kbar) -28431.98      0.01      0.01
                                0.01 -28431.96     -0.00
                                0.01     -0.00 -40719.30

     hubbard stress (kbar)      0.00      0.00      0.00
                                0.00      0.00      0.00
                                0.00      0.00      0.00

     DFT-D   stress (kbar)      0.00      0.00      0.00
                                0.00      0.00      0.00
                                0.00      0.00      0.00

     XDM     stress (kbar)      0.00      0.00      0.00
                                0.00      0.00      0.00
                                0.00      0.00      0.00

     dft-nl  stress (kbar)      0.00      0.00      0.00
                                0.00      0.00      0.00
                                0.00      0.00      0.00

     TS-vdW  stress (kbar)      0.00      0.00      0.00
                                0.00      0.00      0.00
                                0.00      0.00      0.00

     MDB     stress (kbar)      0.00      0.00      0.00
                                0.00      0.00      0.00
                                0.00      0.00      0.00

     3D-RISM stress (kbar)      0.00      0.00      0.00
                                0.00      0.00      0.00
                                0.00      0.00      0.00


     Writing all to output data dir ./out/aiida.save/

     init_run     :    217.08s CPU    113.59s WALL (       1 calls)
     electrons    :   5710.55s CPU   2956.78s WALL (       1 calls)
     forces       :     72.92s CPU     38.56s WALL (       1 calls)
     stress       :     81.68s CPU     40.33s WALL (       1 calls)

     Called by init_run:
     wfcinit      :    204.42s CPU    106.62s WALL (       1 calls)
     wfcinit:atom :      0.04s CPU      0.04s WALL (      69 calls)
     wfcinit:wfcr :    204.21s CPU    106.37s WALL (      69 calls)
     potinit      :      0.60s CPU      0.33s WALL (       1 calls)
     hinit0       :     11.82s CPU      6.41s WALL (       1 calls)

     Called by electrons:
     c_bands      :   4736.36s CPU   2452.27s WALL (      10 calls)
     sum_band     :    967.75s CPU    500.77s WALL (      10 calls)
     v_of_rho     :      4.50s CPU      2.31s WALL (      10 calls)
     v_h          :      0.76s CPU      0.35s WALL (      10 calls)
     v_xc         :      4.49s CPU      2.32s WALL (      12 calls)
     newd         :      1.89s CPU      1.42s WALL (      10 calls)
     mix_rho      :      0.47s CPU      0.20s WALL (      10 calls)

     Called by c_bands:
     init_us_2    :      2.42s CPU      1.69s WALL (    1587 calls)
     init_us_2:cp :      2.40s CPU      1.68s WALL (    1587 calls)
     cegterg      :   4721.89s CPU   2444.63s WALL (     690 calls)

     Called by sum_band:
     sum_band:wei :      0.05s CPU      0.05s WALL (      10 calls)
     sum_band:loo :    965.56s CPU    499.01s WALL (      10 calls)
     sum_band:buf :      0.14s CPU      0.10s WALL (     690 calls)
     sum_band:ini :      1.34s CPU      0.74s WALL (     690 calls)
     sum_band:cal :      7.96s CPU      6.49s WALL (     690 calls)
     sum_band:bec :     33.95s CPU     15.05s WALL (     690 calls)
     addusdens    :      0.85s CPU      0.93s WALL (      10 calls)
                                        0.00s GPU  (      10 calls)
     addusd:skk   :      0.00s CPU      0.00s WALL (      20 calls)
                                        0.00s GPU  (      20 calls)

     Called by *egterg:
     cdiaghg      :      4.51s CPU      5.01s WALL (    3140 calls)
     cegterg:over :     15.89s CPU     14.91s WALL (    2519 calls)
     cegterg:upda :     41.56s CPU     17.84s WALL (    2519 calls)
     cegterg:last :      2.03s CPU      2.34s WALL (    1517 calls)
     h_psi        :   4702.10s CPU   2429.96s WALL (    3278 calls)
     s_psi        :      8.52s CPU      4.08s WALL (    3278 calls)
     g_psi        :     39.00s CPU     16.87s WALL (    2519 calls)

     Called by h_psi:
     h_psi:calbec :     31.80s CPU     26.62s WALL (    3278 calls)
     vloc_psi     :   4612.47s CPU   2376.87s WALL (    3278 calls)
     add_vuspsi   :      2.83s CPU      2.93s WALL (    3278 calls)

     General routines
     calbec       :     49.69s CPU     44.56s WALL (    4313 calls)
     fft          :     16.31s CPU      8.25s WALL (     136 calls)
     ffts         :      0.53s CPU      0.33s WALL (      10 calls)
     fftw         :   3479.34s CPU   1949.50s WALL (   78580 calls)

     Parallel routines

     PWSCF        :      1h41m CPU  52m31.78s WALL


   This run was terminated on:  17:59:29  24Feb2025            

=------------------------------------------------------------------------------=
   JOB DONE.
=------------------------------------------------------------------------------=
