
     Program PWSCF v.7.2 starts on 23Feb2025 at 23: 0: 2 

     This program is part of the open-source Quantum ESPRESSO suite
     for quantum simulation of materials; please cite
         "P. Giannozzi et al., J. Phys.:Condens. Matter 21 395502 (2009);
         "P. Giannozzi et al., J. Phys.:Condens. Matter 29 465901 (2017);
         "P. Giannozzi et al., J. Chem. Phys. 152 154105 (2020);
          URL http://www.quantum-espresso.org", 
     in publications or presentations arising from this work. More details at
     http://www.quantum-espresso.org/quote

     Parallel version (MPI & OpenMP), running on      32 processor cores
     Number of MPI processes:                 4
     Threads/MPI process:                     8

     MPI processes distributed on     1 nodes
     241713 MiB available memory on the printing compute node when the environment starts

     Reading input from vcrelax.in

     Current dimensions of program PWSCF are:
     Max number of different atomic species (ntypx) = 10
     Max number of k-points (npk) =  40000
     Max angular momentum in pseudopotentials (lmaxx) =  4

     R & G space division:  proc/nbgrp/npool/nimage =       4
     Subspace diagonalization in iterative solution of the eigenvalue problem:
     a serial algorithm will be used


     Parallelization info
     --------------------
     sticks:   dense  smooth     PW     G-vecs:    dense   smooth      PW
     Min          49      22      9                 2269      782     177
     Max          50      23     10                 2278      787     184
     Sum         199      91     37                 9099     3139     725

     Using Slab Decomposition



     bravais-lattice index     =            4
     lattice parameter (alat)  =       3.1842  a.u.
     unit-cell volume          =     113.9660 (a.u.)^3
     number of atoms/cell      =            3
     number of atomic types    =            2
     number of electrons       =        26.00
     number of Kohn-Sham states=           17
     kinetic-energy cutoff     =      35.0000  Ry
     charge density cutoff     =     280.0000  Ry
     scf convergence threshold =      1.2E-09
     mixing beta               =       0.4000
     number of iterations used =            8  plain     mixing
     energy convergence thresh.=      6.0E-05
     force convergence thresh. =      1.0E-04
     press convergence thresh. =      5.0E-01
     Exchange-correlation= SLA  PW   PSX  PSC
                           (   1   4  10   8   0   0   0)
     nstep                     =           50


     celldm(1)=   3.184223  celldm(2)=   0.000000  celldm(3)=   4.076000
     celldm(4)=   0.000000  celldm(5)=   0.000000  celldm(6)=   0.000000

     crystal axes: (cart. coord. in units of alat)
               a(1) = (   1.000000   0.000000   0.000000 )  
               a(2) = (  -0.500000   0.866025   0.000000 )  
               a(3) = (   0.000000   0.000000   4.076000 )  

     reciprocal axes: (cart. coord. in units 2 pi/alat)
               b(1) = (  1.000000  0.577350 -0.000000 )  
               b(2) = (  0.000000  1.154701  0.000000 )  
               b(3) = (  0.000000 -0.000000  0.245339 )  


     PseudoPot. # 1 for S  read from file:
     ./pseudo/s_pbesol_v1.4.uspp.F.UPF
     MD5 check sum: 0ccfa86ec6eb59065d10aaae963ef2a7
     Pseudo is Ultrasoft + core correction, Zval =  6.0
     Generated by new atomic code, or converted to UPF format
     Using radial grid of  907 points,  6 beta functions with: 
                l(1) =   0
                l(2) =   0
                l(3) =   1
                l(4) =   1
                l(5) =   2
                l(6) =   2
     Q(r) pseudized with  8 coefficients,  rinner =    1.300   1.300   1.300
                                                       1.300   1.300

     PseudoPot. # 2 for W  read from file:
     ./pseudo/w_pbesol_v1.2.uspp.F.UPF
     MD5 check sum: 78d6efd6ad550bd5be97e9711072ceda
     Pseudo is Ultrasoft + core correction, Zval = 14.0
     Generated by new atomic code, or converted to UPF format
     Using radial grid of  923 points,  8 beta functions with: 
                l(1) =   0
                l(2) =   0
                l(3) =   0
                l(4) =   1
                l(5) =   1
                l(6) =   2
                l(7) =   2
                l(8) =   3
     Q(r) pseudized with  6 coefficients,  rinner =    1.350   1.350   1.350
                                                       1.350   1.350   1.350
                                                       1.350

     atomic species   valence    mass     pseudopotential
        S              6.00    32.06500     S ( 1.00)
        W             14.00   183.84000     W ( 1.00)

      6 Sym. Ops. (no inversion) found


                                    s                        frac. trans.

      isym =  1     identity                                     

 cryst.   s( 1) = (     1          0          0      )
                  (     0          1          0      )
                  (     0          0          1      )

 cart.    s( 1) = (  1.0000000  0.0000000  0.0000000 )
                  (  0.0000000  1.0000000  0.0000000 )
                  (  0.0000000  0.0000000  1.0000000 )


      isym =  2     120 deg rotation - cryst. axis [0,0,1]       

 cryst.   s( 2) = (     0          1          0      )
                  (    -1         -1          0      )
                  (     0          0          1      )

 cart.    s( 2) = ( -0.5000000 -0.8660254  0.0000000 )
                  (  0.8660254 -0.5000000  0.0000000 )
                  (  0.0000000  0.0000000  1.0000000 )


      isym =  3     120 deg rotation - cryst. axis [0,0,-1]      

 cryst.   s( 3) = (    -1         -1          0      )
                  (     1          0          0      )
                  (     0          0          1      )

 cart.    s( 3) = ( -0.5000000  0.8660254  0.0000000 )
                  ( -0.8660254 -0.5000000  0.0000000 )
                  (  0.0000000  0.0000000  1.0000000 )


      isym =  4     inv. 180 deg rotation - cart. axis [1,0,0]   

 cryst.   s( 4) = (    -1          0          0      )
                  (     1          1          0      )
                  (     0          0          1      )

 cart.    s( 4) = ( -1.0000000  0.0000000  0.0000000 )
                  (  0.0000000  1.0000000  0.0000000 )
                  (  0.0000000  0.0000000  1.0000000 )


      isym =  5     inv. 180 deg rotation - cryst. axis [0,1,0]  

 cryst.   s( 5) = (     1          1          0      )
                  (     0         -1          0      )
                  (     0          0          1      )

 cart.    s( 5) = (  0.5000000  0.8660254  0.0000000 )
                  (  0.8660254 -0.5000000  0.0000000 )
                  (  0.0000000  0.0000000  1.0000000 )


      isym =  6     inv. 180 deg rotation - cryst. axis [1,1,0]  

 cryst.   s( 6) = (     0         -1          0      )
                  (    -1          0          0      )
                  (     0          0          1      )

 cart.    s( 6) = (  0.5000000 -0.8660254  0.0000000 )
                  ( -0.8660254 -0.5000000  0.0000000 )
                  (  0.0000000  0.0000000  1.0000000 )


     point group C_3v (3m)  
     there are  3 classes
     the character table:

       E     2C3   3s_v 
A_1    1.00  1.00  1.00
A_2    1.00  1.00 -1.00
E      2.00 -1.00  0.00

     the symmetry operations in each class and the name of the first element:

     E        1
          identity                                               
     2C3      2    3
          120 deg rotation - cryst. axis [0,0,1]                 
     3s_v     4    5    6
          inv. 180 deg rotation - cart. axis [1,0,0]             

   Cartesian axes

     site n.     atom                  positions (alat units)
         1           W   tau(   1) = (  -0.0000005   0.5773506   1.0190000  )
         2           S   tau(   2) = (   0.0000000   0.0000000   2.5670852  )
         3           S   tau(   3) = (   0.5000005   0.2886748   0.5290852  )

   Crystallographic axes

     site n.     atom                  positions (cryst. coord.)
         1           W   tau(   1) = (  0.3333330  0.6666670  0.2500000  )
         2           S   tau(   2) = (  0.0000000  0.0000000  0.6298050  )
         3           S   tau(   3) = (  0.6666670  0.3333330  0.1298050  )

     number of k points=    30  Marzari-Vanderbilt smearing, width (Ry)=  0.0200
                       cart. coord. in units 2pi/alat
        k(    1) = (   0.0000000   0.0000000   0.0000000), wk =   0.0078125
        k(    2) = (   0.0000000   0.0721688   0.0000000), wk =   0.0468750
        k(    3) = (   0.0000000   0.1443376   0.0000000), wk =   0.0468750
        k(    4) = (   0.0000000   0.2165064   0.0000000), wk =   0.0468750
        k(    5) = (   0.0000000   0.2886751   0.0000000), wk =   0.0468750
        k(    6) = (   0.0000000   0.3608439   0.0000000), wk =   0.0468750
        k(    7) = (   0.0000000   0.4330127   0.0000000), wk =   0.0468750
        k(    8) = (   0.0000000   0.5051815   0.0000000), wk =   0.0468750
        k(    9) = (   0.0000000  -0.5773503   0.0000000), wk =   0.0234375
        k(   10) = (   0.0625000   0.1082532   0.0000000), wk =   0.0468750
        k(   11) = (   0.0625000   0.1804220   0.0000000), wk =   0.0937500
        k(   12) = (   0.0625000   0.2525907   0.0000000), wk =   0.0937500
        k(   13) = (   0.0625000   0.3247595   0.0000000), wk =   0.0937500
        k(   14) = (   0.0625000   0.3969283   0.0000000), wk =   0.0937500
        k(   15) = (   0.0625000   0.4690971   0.0000000), wk =   0.0937500
        k(   16) = (   0.0625000   0.5412659   0.0000000), wk =   0.0937500
        k(   17) = (   0.1250000   0.2165064   0.0000000), wk =   0.0468750
        k(   18) = (   0.1250000   0.2886751   0.0000000), wk =   0.0937500
        k(   19) = (   0.1250000   0.3608439   0.0000000), wk =   0.0937500
        k(   20) = (   0.1250000   0.4330127   0.0000000), wk =   0.0937500
        k(   21) = (   0.1250000   0.5051815   0.0000000), wk =   0.0937500
        k(   22) = (   0.1250000   0.5773503   0.0000000), wk =   0.0468750
        k(   23) = (   0.1875000   0.3247595   0.0000000), wk =   0.0468750
        k(   24) = (   0.1875000   0.3969283   0.0000000), wk =   0.0937500
        k(   25) = (   0.1875000   0.4690971   0.0000000), wk =   0.0937500
        k(   26) = (   0.1875000   0.5412659   0.0000000), wk =   0.0937500
        k(   27) = (   0.2500000   0.4330127   0.0000000), wk =   0.0468750
        k(   28) = (   0.2500000   0.5051815   0.0000000), wk =   0.0937500
        k(   29) = (   0.2500000   0.5773503   0.0000000), wk =   0.0468750
        k(   30) = (   0.3125000   0.5412659   0.0000000), wk =   0.0468750

                       cryst. coord.
        k(    1) = (   0.0000000   0.0000000   0.0000000), wk =   0.0078125
        k(    2) = (   0.0000000   0.0625000   0.0000000), wk =   0.0468750
        k(    3) = (   0.0000000   0.1250000   0.0000000), wk =   0.0468750
        k(    4) = (   0.0000000   0.1875000   0.0000000), wk =   0.0468750
        k(    5) = (   0.0000000   0.2500000   0.0000000), wk =   0.0468750
        k(    6) = (   0.0000000   0.3125000   0.0000000), wk =   0.0468750
        k(    7) = (   0.0000000   0.3750000   0.0000000), wk =   0.0468750
        k(    8) = (   0.0000000   0.4375000   0.0000000), wk =   0.0468750
        k(    9) = (   0.0000000  -0.5000000   0.0000000), wk =   0.0234375
        k(   10) = (   0.0625000   0.0625000   0.0000000), wk =   0.0468750
        k(   11) = (   0.0625000   0.1250000   0.0000000), wk =   0.0937500
        k(   12) = (   0.0625000   0.1875000   0.0000000), wk =   0.0937500
        k(   13) = (   0.0625000   0.2500000   0.0000000), wk =   0.0937500
        k(   14) = (   0.0625000   0.3125000   0.0000000), wk =   0.0937500
        k(   15) = (   0.0625000   0.3750000   0.0000000), wk =   0.0937500
        k(   16) = (   0.0625000   0.4375000   0.0000000), wk =   0.0937500
        k(   17) = (   0.1250000   0.1250000   0.0000000), wk =   0.0468750
        k(   18) = (   0.1250000   0.1875000   0.0000000), wk =   0.0937500
        k(   19) = (   0.1250000   0.2500000   0.0000000), wk =   0.0937500
        k(   20) = (   0.1250000   0.3125000   0.0000000), wk =   0.0937500
        k(   21) = (   0.1250000   0.3750000   0.0000000), wk =   0.0937500
        k(   22) = (   0.1250000   0.4375000   0.0000000), wk =   0.0468750
        k(   23) = (   0.1875000   0.1875000   0.0000000), wk =   0.0468750
        k(   24) = (   0.1875000   0.2500000   0.0000000), wk =   0.0937500
        k(   25) = (   0.1875000   0.3125000   0.0000000), wk =   0.0937500
        k(   26) = (   0.1875000   0.3750000   0.0000000), wk =   0.0937500
        k(   27) = (   0.2500000   0.2500000   0.0000000), wk =   0.0468750
        k(   28) = (   0.2500000   0.3125000   0.0000000), wk =   0.0937500
        k(   29) = (   0.2500000   0.3750000   0.0000000), wk =   0.0468750
        k(   30) = (   0.3125000   0.3125000   0.0000000), wk =   0.0468750

     Dense  grid:     9099 G-vectors     FFT dimensions: (  18,  18,  72)

     Smooth grid:     3139 G-vectors     FFT dimensions: (  12,  12,  50)

     Dynamical RAM for                 wfc:       0.03 MB

     Dynamical RAM for     wfc (w. buffer):       0.80 MB

     Dynamical RAM for           str. fact:       0.07 MB

     Dynamical RAM for           local pot:       0.00 MB

     Dynamical RAM for          nlocal pot:       0.09 MB

     Dynamical RAM for                qrad:      12.90 MB

     Dynamical RAM for          rho,v,vnew:       0.24 MB

     Dynamical RAM for               rhoin:       0.08 MB

     Dynamical RAM for            rho*nmix:       0.55 MB

     Dynamical RAM for           G-vectors:       0.14 MB

     Dynamical RAM for          h,s,v(r/c):       0.05 MB

     Dynamical RAM for          <psi|beta>:       0.02 MB

     Dynamical RAM for                 psi:       0.05 MB

     Dynamical RAM for                hpsi:       0.05 MB

     Dynamical RAM for                spsi:       0.05 MB

     Dynamical RAM for      wfcinit/wfcrot:       0.07 MB

     Dynamical RAM for           addusdens:      13.16 MB

     Dynamical RAM for          addusforce:      13.26 MB

     Dynamical RAM for         addusstress:      14.02 MB

     Estimated static dynamical RAM per process >      14.63 MB

     Estimated max dynamical RAM per process >      29.21 MB

     Estimated total dynamical RAM >     116.84 MB

     Initial potential from superposition of free atoms

     starting charge      25.8996, renormalised to      26.0000

     negative rho (up, down):  3.493E-02 0.000E+00
     Starting wfcs are   21 randomized atomic wfcs

     total cpu time spent up to now is       58.5 secs

     per-process dynamical memory:    24.3 Mb

     Self-consistent Calculation

     iteration #  1     ecut=    35.00 Ry     beta= 0.40
     Davidson diagonalization with overlap

---- Real-time Memory Report at c_bands before calling an iterative solver
            56 MiB given to the printing process from OS
            23 MiB allocation reported by mallinfo(arena+hblkhd)
        241619 MiB available memory on the node where the printing process lives
------------------
     ethr =  1.00E-02,  avg # of iterations =  7.4

     negative rho (up, down):  3.671E-02 0.000E+00

     total cpu time spent up to now is      256.0 secs

     total energy              =    -181.64491075 Ry
     estimated scf accuracy    <      19.75135346 Ry

     iteration #  2     ecut=    35.00 Ry     beta= 0.40
     Davidson diagonalization with overlap

---- Real-time Memory Report at c_bands before calling an iterative solver
            59 MiB given to the printing process from OS
            36 MiB allocation reported by mallinfo(arena+hblkhd)
        241571 MiB available memory on the node where the printing process lives
------------------
     ethr =  1.00E-02,  avg # of iterations =  9.2

     negative rho (up, down):  3.684E-02 0.000E+00

     total cpu time spent up to now is      491.7 secs

     total energy              =    -169.49057876 Ry
     estimated scf accuracy    <     280.94062930 Ry

     iteration #  3     ecut=    35.00 Ry     beta= 0.40
     Davidson diagonalization with overlap

---- Real-time Memory Report at c_bands before calling an iterative solver
            59 MiB given to the printing process from OS
            37 MiB allocation reported by mallinfo(arena+hblkhd)
        241564 MiB available memory on the node where the printing process lives
------------------
     ethr =  1.00E-02,  avg # of iterations =  6.8

     negative rho (up, down):  3.892E-02 0.000E+00

     total cpu time spent up to now is      684.5 secs

     total energy              =    -191.49959612 Ry
     estimated scf accuracy    <       0.73089504 Ry

     iteration #  4     ecut=    35.00 Ry     beta= 0.40
     Davidson diagonalization with overlap

---- Real-time Memory Report at c_bands before calling an iterative solver
            59 MiB given to the printing process from OS
            37 MiB allocation reported by mallinfo(arena+hblkhd)
        241562 MiB available memory on the node where the printing process lives
------------------
     ethr =  2.81E-03,  avg # of iterations =  1.7

     negative rho (up, down):  3.959E-02 0.000E+00

     total cpu time spent up to now is      784.5 secs

     total energy              =    -191.54082605 Ry
     estimated scf accuracy    <       0.17697999 Ry

     iteration #  5     ecut=    35.00 Ry     beta= 0.40
     Davidson diagonalization with overlap

---- Real-time Memory Report at c_bands before calling an iterative solver
            59 MiB given to the printing process from OS
            37 MiB allocation reported by mallinfo(arena+hblkhd)
        241563 MiB available memory on the node where the printing process lives
------------------
     ethr =  6.81E-04,  avg # of iterations =  2.3

     negative rho (up, down):  4.156E-02 0.000E+00

     total cpu time spent up to now is      888.1 secs

     total energy              =    -191.56258832 Ry
     estimated scf accuracy    <       0.04940363 Ry

     iteration #  6     ecut=    35.00 Ry     beta= 0.40
     Davidson diagonalization with overlap

---- Real-time Memory Report at c_bands before calling an iterative solver
            59 MiB given to the printing process from OS
            37 MiB allocation reported by mallinfo(arena+hblkhd)
        241564 MiB available memory on the node where the printing process lives
------------------
     ethr =  1.90E-04,  avg # of iterations =  3.0

     negative rho (up, down):  4.266E-02 0.000E+00

     total cpu time spent up to now is      996.3 secs

     total energy              =    -191.56880379 Ry
     estimated scf accuracy    <       0.02121126 Ry

     iteration #  7     ecut=    35.00 Ry     beta= 0.40
     Davidson diagonalization with overlap

---- Real-time Memory Report at c_bands before calling an iterative solver
            59 MiB given to the printing process from OS
            37 MiB allocation reported by mallinfo(arena+hblkhd)
        241561 MiB available memory on the node where the printing process lives
------------------
     ethr =  8.16E-05,  avg # of iterations =  1.2

     negative rho (up, down):  4.251E-02 0.000E+00

     total cpu time spent up to now is     1092.7 secs

     total energy              =    -191.56900687 Ry
     estimated scf accuracy    <       0.00317771 Ry

     iteration #  8     ecut=    35.00 Ry     beta= 0.40
     Davidson diagonalization with overlap

---- Real-time Memory Report at c_bands before calling an iterative solver
            59 MiB given to the printing process from OS
            37 MiB allocation reported by mallinfo(arena+hblkhd)
        241562 MiB available memory on the node where the printing process lives
------------------
     ethr =  1.22E-05,  avg # of iterations =  4.2

     negative rho (up, down):  4.244E-02 0.000E+00

     total cpu time spent up to now is     1209.9 secs

     total energy              =    -191.56947539 Ry
     estimated scf accuracy    <       0.00050109 Ry

     iteration #  9     ecut=    35.00 Ry     beta= 0.40
     Davidson diagonalization with overlap

---- Real-time Memory Report at c_bands before calling an iterative solver
            59 MiB given to the printing process from OS
            37 MiB allocation reported by mallinfo(arena+hblkhd)
        241562 MiB available memory on the node where the printing process lives
------------------
     ethr =  1.93E-06,  avg # of iterations =  3.4

     negative rho (up, down):  4.233E-02 0.000E+00

     total cpu time spent up to now is     1317.7 secs

     total energy              =    -191.56954556 Ry
     estimated scf accuracy    <       0.00037316 Ry

     iteration # 10     ecut=    35.00 Ry     beta= 0.40
     Davidson diagonalization with overlap

---- Real-time Memory Report at c_bands before calling an iterative solver
            59 MiB given to the printing process from OS
            37 MiB allocation reported by mallinfo(arena+hblkhd)
        241564 MiB available memory on the node where the printing process lives
------------------
     ethr =  1.44E-06,  avg # of iterations =  1.0

     negative rho (up, down):  4.231E-02 0.000E+00

     total cpu time spent up to now is     1413.5 secs

     total energy              =    -191.56957097 Ry
     estimated scf accuracy    <       0.00000039 Ry

     iteration # 11     ecut=    35.00 Ry     beta= 0.40
     Davidson diagonalization with overlap

---- Real-time Memory Report at c_bands before calling an iterative solver
            59 MiB given to the printing process from OS
            37 MiB allocation reported by mallinfo(arena+hblkhd)
        241563 MiB available memory on the node where the printing process lives
------------------
     ethr =  1.48E-09,  avg # of iterations =  8.5

     negative rho (up, down):  4.233E-02 0.000E+00

     total cpu time spent up to now is     1681.0 secs

     total energy              =    -191.56957694 Ry
     estimated scf accuracy    <       0.00000049 Ry

     iteration # 12     ecut=    35.00 Ry     beta= 0.40
     Davidson diagonalization with overlap

---- Real-time Memory Report at c_bands before calling an iterative solver
            59 MiB given to the printing process from OS
            37 MiB allocation reported by mallinfo(arena+hblkhd)
        241562 MiB available memory on the node where the printing process lives
------------------
     ethr =  1.48E-09,  avg # of iterations =  1.0

     negative rho (up, down):  4.221E-02 0.000E+00

     total cpu time spent up to now is     1776.7 secs

     total energy              =    -191.56957664 Ry
     estimated scf accuracy    <       0.00000050 Ry

     iteration # 13     ecut=    35.00 Ry     beta= 0.40
     Davidson diagonalization with overlap

---- Real-time Memory Report at c_bands before calling an iterative solver
            59 MiB given to the printing process from OS
            37 MiB allocation reported by mallinfo(arena+hblkhd)
        241559 MiB available memory on the node where the printing process lives
------------------
     ethr =  1.48E-09,  avg # of iterations =  2.0

     negative rho (up, down):  4.219E-02 0.000E+00

     total cpu time spent up to now is     1879.7 secs

     total energy              =    -191.56957666 Ry
     estimated scf accuracy    <       0.00000002 Ry

     iteration # 14     ecut=    35.00 Ry     beta= 0.40
     Davidson diagonalization with overlap

---- Real-time Memory Report at c_bands before calling an iterative solver
            59 MiB given to the printing process from OS
            37 MiB allocation reported by mallinfo(arena+hblkhd)
        241563 MiB available memory on the node where the printing process lives
------------------
     ethr =  5.92E-11,  avg # of iterations =  4.0

     negative rho (up, down):  4.218E-02 0.000E+00

     total cpu time spent up to now is     2000.2 secs

     End of self-consistent calculation

          k = 0.0000 0.0000 0.0000 (   367 PWs)   bands (ev):

   -57.0540 -17.5640   2.7670   2.7670   9.7202  11.4672  22.3236  22.3236
    23.5906  26.6042  37.2992  37.9298  41.5119  41.5120  46.4465  53.6762
    55.3155

     occupation numbers 
     1.0000   1.0000   1.0000   1.0000   1.0000   1.0000   1.0000   1.0000
     1.0000   1.0000   1.0000   1.0000   1.0000   1.0000   0.0000   0.0000
     0.0000

          k = 0.0000 0.0722 0.0000 (   371 PWs)   bands (ev):

   -56.7645 -17.3944   0.6415   2.0640   9.9882  11.8175  21.7674  23.6662
    24.2959  27.3635  37.7817  38.1314  40.1701  41.1672  47.6707  53.9969
    55.5558

     occupation numbers 
     1.0000   1.0000   1.0000   1.0000   1.0000   1.0000   1.0000   1.0000
     1.0000   1.0000   1.0000   1.0000   1.0000   1.0000   0.0000   0.0000
     0.0000

          k = 0.0000 0.1443 0.0000 (   389 PWs)   bands (ev):

   -55.9154 -16.9079  -4.0554   0.4498  10.7344  12.5287  20.0602  25.5266
    27.1735  29.6016  34.8450  39.2729  40.2629  41.3586  50.5371  53.1089
    55.1082

     occupation numbers 
     1.0000   1.0000   1.0000   1.0000   1.0000   1.0000   1.0000   1.0000
     1.0000   1.0000   1.0000   1.0000   1.0000   1.0000   0.0000   0.0000
     0.0000

          k = 0.0000 0.2165 0.0000 (   393 PWs)   bands (ev):

   -54.5618 -16.2628  -9.3291  -1.3150  11.9136  13.2433  18.1471  26.7035
    29.9007  32.0211  32.9635  39.0851  40.4602  44.5639  48.1013  52.3226
    54.7823

     occupation numbers 
     1.0000   1.0000   1.0000   1.0000   1.0000   1.0000   1.0000   1.0000
     1.0000   1.0000   1.0000   1.0000   1.0000   0.0000   0.0000   0.0000
     0.0000

          k = 0.0000 0.2887 0.0000 (   391 PWs)   bands (ev):

   -52.7897 -17.0228 -12.8411  -2.8222  12.7216  13.8291  17.3207  25.1235
    29.1385  35.3154  37.2338  38.3496  41.3322  43.6000  46.0409  51.6766
    55.0523

     occupation numbers 
     1.0000   1.0000   1.0000   1.0000   1.0000   1.0000   1.0000   1.0000
     1.0000   1.0000   1.0000   1.0000   1.0000   0.0000   0.0000   0.0000
     0.0000

          k = 0.0000 0.3608 0.0000 (   393 PWs)   bands (ev):

   -50.7206 -21.2115 -12.2452  -3.9458  11.2376  15.7831  17.5585  22.1600
    31.2101  36.6472  37.5750  38.0965  41.9582  44.0810  45.5171  51.8746
    54.6266

     occupation numbers 
     1.0000   1.0000   1.0000   1.0000   1.0000   1.0000   1.0000   1.0000
     1.0000   1.0000   1.0000   1.0000   1.0002   0.0000   0.0000   0.0000
     0.0000

          k = 0.0000 0.4330 0.0000 (   391 PWs)   bands (ev):

   -48.5531 -25.4840 -10.7379  -4.6845   9.4088  16.0629  18.2705  22.2881
    33.5756  34.0474  35.7988  37.4792  41.4509  47.2010  49.5060  50.3837
    51.5338

     occupation numbers 
     1.0000   1.0000   1.0000   1.0000   1.0000   1.0000   1.0000   1.0000
     1.0000   1.0000   1.0000   1.0000   1.0000   0.0000   0.0000   0.0000
     0.0000

          k = 0.0000 0.5052 0.0000 (   402 PWs)   bands (ev):

   -46.6949 -28.6867  -9.3758  -5.0946   7.9313  14.2552  20.8299  24.0547
    30.0691  34.4980  35.2526  37.0875  43.6695  45.0950  48.9375  50.7935
    54.7771

     occupation numbers 
     1.0000   1.0000   1.0000   1.0000   1.0000   1.0000   1.0000   1.0000
     1.0000   1.0000   1.0000   1.0000   0.0000   0.0000   0.0000   0.0000
     0.0000

          k = 0.0000-0.5774 0.0000 (   392 PWs)   bands (ev):

   -45.8982 -29.9393  -8.8042  -5.2225   7.3326  13.5655  22.3926  25.0773
    28.1995  33.0093  35.0671  40.4345  41.0120  45.4560  48.9079  50.8459
    55.1043

     occupation numbers 
     1.0000   1.0000   1.0000   1.0000   1.0000   1.0000   1.0000   1.0000
     1.0000   1.0000   1.0000   1.0000   1.0000   0.0000   0.0000   0.0000
     0.0000

          k = 0.0625 0.1083 0.0000 (   381 PWs)   bands (ev):

   -56.1950 -17.0649  -2.4483   0.5695  10.4943  12.3680  21.7473  23.8915
    25.7661  29.4056  35.9532  39.0403  40.1976  40.9243  49.7222  54.5063
    54.7381

     occupation numbers 
     1.0000   1.0000   1.0000   1.0000   1.0000   1.0000   1.0000   1.0000
     1.0000   1.0000   1.0000   1.0000   1.0000   1.0000   0.0000   0.0000
     0.0000

          k = 0.0625 0.1804 0.0000 (   386 PWs)   bands (ev):

   -55.0919 -16.4722  -7.0142  -1.6561  11.4718  13.2360  20.4989  25.7793
    27.6394  31.6932  33.0698  38.9783  40.1048  44.0786  50.1448  52.2273
    55.0991

     occupation numbers 
     1.0000   1.0000   1.0000   1.0000   1.0000   1.0000   1.0000   1.0000
     1.0000   1.0000   1.0000   1.0000   1.0000   0.0000   0.0000   0.0000
     0.0000

          k = 0.0625 0.2526 0.0000 (   394 PWs)   bands (ev):

   -53.5233 -16.1367 -11.5679  -3.6712  12.8752  14.0839  18.7691  26.4443
    28.8009  31.8063  35.5173  37.7936  41.3747  45.4087  47.3976  52.0616
    54.5322

     occupation numbers 
     1.0000   1.0000   1.0000   1.0000   1.0000   1.0000   1.0000   1.0000
     1.0000   1.0000   1.0000   1.0000   1.0000   0.0000   0.0000   0.0000
     0.0000

          k = 0.0625 0.3248 0.0000 (   400 PWs)   bands (ev):

   -51.5869 -18.8799 -12.6766  -5.2332  13.6689  14.9442  18.0146  23.4732
    30.2463  35.3594  36.0234  39.8296  40.3935  43.3696  46.1322  52.7605
    54.4062

     occupation numbers 
     1.0000   1.0000   1.0000   1.0000   1.0000   1.0000   1.0000   1.0000
     1.0000   1.0000   1.0000   1.0000   1.0000   0.0013   0.0000   0.0000
     0.0000

          k = 0.0625 0.3969 0.0000 (   402 PWs)   bands (ev):

   -49.4299 -23.2968 -11.4677  -6.3068  12.2125  16.9911  17.5764  22.0615
    32.6210  34.5366  35.8475  38.1913  41.7043  45.6025  46.3395  51.8162
    53.0213

     occupation numbers 
     1.0000   1.0000   1.0000   1.0000   1.0000   1.0000   1.0000   1.0000
     1.0000   1.0000   1.0000   1.0000   1.0000   0.0000   0.0000   0.0000
     0.0000

          k = 0.0625 0.4691 0.0000 (   401 PWs)   bands (ev):

   -47.3319 -27.1166 -10.1204  -6.8771  10.4429  15.7328  19.7227  23.3366
    31.8570  33.4482  35.6805  36.5722  43.0773  47.0967  48.1776  49.9599
    52.9804

     occupation numbers 
     1.0000   1.0000   1.0000   1.0000   1.0000   1.0000   1.0000   1.0000
     1.0000   1.0000   1.0000   1.0000   0.0870   0.0000   0.0000   0.0000
     0.0000

          k = 0.0625 0.5413 0.0000 (   403 PWs)   bands (ev):

   -45.8803 -29.4656  -9.3395  -6.9793   9.2085  14.6861  22.0766  24.9486
    28.8312  32.4412  34.7743  39.0588  42.9134  45.6006  48.6691  50.1304
    53.6083

     occupation numbers 
     1.0000   1.0000   1.0000   1.0000   1.0000   1.0000   1.0000   1.0000
     1.0000   1.0000   1.0000   1.0000   0.3591   0.0000   0.0000   0.0000
     0.0000

          k = 0.1250 0.2165 0.0000 (   395 PWs)   bands (ev):

   -53.7697 -16.0089 -10.2784  -4.9868  12.6837  14.3736  22.0024  25.5098
    28.4734  29.4636  34.9882  37.4167  41.3124  46.4277  48.4020  52.2852
    54.5099

     occupation numbers 
     1.0000   1.0000   1.0000   1.0000   1.0000   1.0000   1.0000   1.0000
     1.0000   1.0000   1.0000   1.0000   1.0000   0.0000   0.0000   0.0000
     0.0000

          k = 0.1250 0.2887 0.0000 (   398 PWs)   bands (ev):

   -52.0201 -17.0879 -12.3754  -7.7745  14.3250  15.5398  21.0488  24.7646
    29.6829  30.8998  34.2905  38.6819  41.9686  43.0440  48.6095  51.4169
    54.1708

     occupation numbers 
     1.0000   1.0000   1.0000   1.0000   1.0000   1.0000   1.0000   1.0000
     1.0000   1.0000   1.0000   1.0000   1.0002   0.1224   0.0000   0.0000
     0.0000

          k = 0.1250 0.3608 0.0000 (   400 PWs)   bands (ev):

   -49.9504 -20.8593 -12.0417  -9.4127  15.6039  16.5045  19.5486  23.2390
    31.6425  32.3229  35.5536  37.9316  41.4486  43.6346  45.8647  50.7399
    53.4548

     occupation numbers 
     1.0000   1.0000   1.0000   1.0000   1.0000   1.0000   1.0000   1.0000
     1.0000   1.0000   1.0000   1.0000   1.0000   0.0000   0.0000   0.0000
     0.0000

          k = 0.1250 0.4330 0.0000 (   404 PWs)   bands (ev):

   -47.7526 -24.9193 -11.9914  -9.3269  13.9008  18.5757  19.1973  23.3683
    30.8050  33.8586  34.7304  37.6708  42.6330  45.1155  46.0369  50.2110
    51.1903

     occupation numbers 
     1.0000   1.0000   1.0000   1.0000   1.0000   1.0000   1.0000   1.0000
     1.0000   1.0000   1.0000   1.0000   1.0168   0.0000   0.0000   0.0000
     0.0000

          k = 0.1250 0.5052 0.0000 (   407 PWs)   bands (ev):

   -45.8405 -28.0807 -12.4383  -8.3329  11.9604  18.3161  21.4870  24.7825
    29.8758  30.4005  35.8824  37.8828  44.7235  45.4518  46.4681  48.2277
    53.2730

     occupation numbers 
     1.0000   1.0000   1.0000   1.0000   1.0000   1.0000   1.0000   1.0000
     1.0000   1.0000   1.0000   1.0000   0.0000   0.0000   0.0000   0.0000
     0.0000

          k = 0.1250 0.5774 0.0000 (   403 PWs)   bands (ev):

   -45.0118 -29.3427 -12.6239  -7.8559  11.1673  18.1062  23.0482  25.6545
    28.5240  29.4908  34.7606  41.3208  41.7123  45.8751  46.4839  49.5552
    52.0188

     occupation numbers 
     1.0000   1.0000   1.0000   1.0000   1.0000   1.0000   1.0000   1.0000
     1.0000   1.0000   1.0000   1.0000   1.0000   0.0000   0.0000   0.0000
     0.0000

          k = 0.1875 0.3248 0.0000 (   407 PWs)   bands (ev):

   -50.1227 -19.4633 -12.4514 -10.9455  16.1151  16.5914  21.2585  25.4211
    30.1472  31.3539  33.0021  39.0449  40.6994  43.4646  46.9771  49.3372
    52.1177

     occupation numbers 
     1.0000   1.0000   1.0000   1.0000   1.0000   1.0000   1.0000   1.0000
     1.0000   1.0000   1.0000   1.0000   1.0000   0.0002   0.0000   0.0000
     0.0000

          k = 0.1875 0.3969 0.0000 (   405 PWs)   bands (ev):

   -47.9584 -22.6910 -14.8699 -10.0099  15.6947  18.4570  21.4072  25.7789
    28.8393  33.8511  35.2934  35.5970  42.5598  43.0274  44.9507  48.5033
    52.1513

     occupation numbers 
     1.0000   1.0000   1.0000   1.0000   1.0000   1.0000   1.0000   1.0000
     1.0000   1.0000   1.0000   1.0000   1.0745   0.1437   0.0000   0.0000
     0.0000

          k = 0.1875 0.4691 0.0000 (   402 PWs)   bands (ev):

   -45.8049 -26.0091 -16.4098  -8.6924  13.9155  20.9406  22.4874  25.6363
    27.6098  32.1154  36.7463  37.3797  42.7333  43.2376  45.2225  48.8279
    49.6522

     occupation numbers 
     1.0000   1.0000   1.0000   1.0000   1.0000   1.0000   1.0000   1.0000
     1.0000   1.0000   1.0000   1.0000   0.8341   0.0113   0.0000   0.0000
     0.0000

          k = 0.1875 0.5413 0.0000 (   403 PWs)   bands (ev):

   -44.2851 -28.2411 -17.0945  -7.8226  12.6820  22.8602  23.4300  25.8498
    27.1838  29.2933  35.9132  40.5033  42.7755  44.2137  44.6982  47.6249
    51.8739

     occupation numbers 
     1.0000   1.0000   1.0000   1.0000   1.0000   1.0000   1.0000   1.0000
     1.0000   1.0000   1.0000   1.0000   0.7276   0.0000   0.0000   0.0000
     0.0000

          k = 0.2500 0.4330 0.0000 (   401 PWs)   bands (ev):

   -45.7915 -24.5476 -18.5681  -8.8019  14.7422  20.7914  23.3932  25.5682
    29.4095  33.0009  35.3549  37.0855  41.7193  42.3905  44.0006  47.9992
    51.8534

     occupation numbers 
     1.0000   1.0000   1.0000   1.0000   1.0000   1.0000   1.0000   1.0000
     1.0000   1.0000   1.0000   1.0000   1.0000   1.0542   0.0000   0.0000
     0.0000

          k = 0.2500 0.5052 0.0000 (   406 PWs)   bands (ev):

   -43.8797 -26.4711 -20.7079  -7.8054  13.8889  23.2252  23.7463  25.5507
    29.8898  30.3682  37.2151  39.7934  41.0315  41.5669  44.4100  47.8717
    49.8230

     occupation numbers 
     1.0000   1.0000   1.0000   1.0000   1.0000   1.0000   1.0000   1.0000
     1.0000   1.0000   1.0000   1.0000   1.0000   1.0000   0.0000   0.0000
     0.0000

          k = 0.2500 0.5774 0.0000 (   403 PWs)   bands (ev):

   -43.0478 -27.4103 -21.3306  -7.4190  13.5592  23.0650  24.9829  26.5407
    28.5501  29.6900  37.3530  40.2598  41.4488  43.6429  43.9844  46.8152
    49.6421

     occupation numbers 
     1.0000   1.0000   1.0000   1.0000   1.0000   1.0000   1.0000   1.0000
     1.0000   1.0000   1.0000   1.0000   1.0000   0.0000   0.0000   0.0000
     0.0000

          k = 0.3125 0.5413 0.0000 (   403 PWs)   bands (ev):

   -42.5684 -26.1230 -23.8420  -7.2804  14.0910  21.9487  25.6955  27.0819
    28.3586  31.7965  38.9117  39.5208  40.5993  43.1878  43.9529  47.0018
    47.7311

     occupation numbers 
     1.0000   1.0000   1.0000   1.0000   1.0000   1.0000   1.0000   1.0000
     1.0000   1.0000   1.0000   1.0000   1.0000   0.0229   0.0000   0.0000
     0.0000

     the Fermi energy is    42.8965 ev

!    total energy              =    -191.56957666 Ry
     estimated scf accuracy    <          1.0E-09 Ry
     smearing contrib. (-TS)   =      -0.00061669 Ry
     internal energy E=F+TS    =    -191.56895998 Ry

     The total energy is F=E-TS. E is the sum of the following terms:
     one-electron contribution =    -295.11403850 Ry
     hartree contribution      =     182.70311493 Ry
     xc contribution           =     -66.99146766 Ry
     ewald contribution        =     -12.16656874 Ry

     convergence has been achieved in  14 iterations

     negative rho (up, down):  4.218E-02 0.000E+00

     Forces acting on atoms (cartesian axes, Ry/au):

     atom    1 type  2   force =     0.00000000    0.00000000   11.73885991
     atom    2 type  1   force =     0.00000000   -0.00000000    0.09591531
     atom    3 type  1   force =     0.00000000    0.00000000  -11.83477522
     The non-local contrib.  to forces
     atom    1 type  2   force =     0.00000000    0.00000000   -6.60796805
     atom    2 type  1   force =     0.00000000    0.00000000    0.03792206
     atom    3 type  1   force =     0.00000000    0.00000000   -3.07561822
     The ionic contribution  to forces
     atom    1 type  2   force =     0.00003033   -0.00001751   53.30079881
     atom    2 type  1   force =    -0.00000001    0.00000000   28.89324058
     atom    3 type  1   force =    -0.00003032    0.00001751  -82.19403939
     The local contribution  to forces
     atom    1 type  2   force =     0.00002272   -0.00001312  -34.54266602
     atom    2 type  1   force =     0.00000000   -0.00000000  -28.83061665
     atom    3 type  1   force =     0.00000754   -0.00000435   73.06199284
     The core correction contribution to forces
     atom    1 type  2   force =    -0.00000276    0.00000159   -0.41128790
     atom    2 type  1   force =     0.00000000   -0.00000000   -0.00462685
     atom    3 type  1   force =     0.00000145   -0.00000084    0.37294111
     The Hubbard contrib.    to forces
     atom    1 type  2   force =     0.00000000    0.00000000    0.00000000
     atom    2 type  1   force =     0.00000000    0.00000000    0.00000000
     atom    3 type  1   force =     0.00000000    0.00000000    0.00000000
     The SCF correction term to forces
     atom    1 type  2   force =     0.00000000   -0.00000000   -0.00001013
     atom    2 type  1   force =    -0.00000000    0.00000000    0.00000296
     atom    3 type  1   force =    -0.00000000    0.00000000   -0.00004478

     Total force =    16.669491     Total SCF correction =     0.000046


     Computing stress (Cartesian axis) and pressure


     negative rho (up, down):  4.218E-02 0.000E+00
          total   stress  (Ry/bohr**3)                   (kbar)     P=    37598.87
   0.29971209   0.00000000   0.00000000        44089.17        0.00        0.00
   0.00000000   0.29971209  -0.00000000            0.00    44089.17       -0.00
   0.00000000  -0.00000000   0.16735155            0.00       -0.00    24618.26

     kinetic stress (kbar)  81662.58      0.00      0.00
                                0.00  81662.58      0.00
                                0.00      0.00  83584.33

     local   stress (kbar)-465070.20     -0.01     -0.00
                               -0.01-465070.22      0.00
                               -0.00      0.00 670915.39

     nonloc. stress (kbar) -11464.30      0.00      0.00
                                0.00 -11464.30      0.00
                                0.00     -0.00 -12399.89

     hartree stress (kbar) 233870.18      0.00      0.00
                                0.00 233870.18     -0.00
                                0.00     -0.00-231910.71

     exc-cor stress (kbar)  26338.04      0.00      0.00
                                0.00  26338.04     -0.00
                                0.00     -0.00  26290.73

     corecor stress (kbar) -46330.57     -0.00     -0.00
                               -0.00 -46330.57      0.00
                               -0.00      0.00 -45990.18

     ewald   stress (kbar) 225083.42      0.08      0.06
                                0.08 225083.51     -0.04
                                0.06     -0.04-465871.40

     hubbard stress (kbar)      0.00      0.00      0.00
                                0.00      0.00      0.00
                                0.00      0.00      0.00

     DFT-D   stress (kbar)      0.00      0.00      0.00
                                0.00      0.00      0.00
                                0.00      0.00      0.00

     XDM     stress (kbar)      0.00      0.00      0.00
                                0.00      0.00      0.00
                                0.00      0.00      0.00

     dft-nl  stress (kbar)      0.00      0.00      0.00
                                0.00      0.00      0.00
                                0.00      0.00      0.00

     TS-vdW  stress (kbar)      0.00      0.00      0.00
                                0.00      0.00      0.00
                                0.00      0.00      0.00

     MDB     stress (kbar)      0.00      0.00      0.00
                                0.00      0.00      0.00
                                0.00      0.00      0.00

     3D-RISM stress (kbar)      0.00      0.00      0.00
                                0.00      0.00      0.00
                                0.00      0.00      0.00


     BFGS Geometry Optimization
     Energy error            =      0.0E+00 Ry
     Gradient error          =      1.2E+01 Ry/Bohr
     Cell gradient error     =      4.4E+04 kbar

     number of scf cycles    =   1
     number of bfgs steps    =   0

     enthalpy           new  =    -191.5695766626 Ry

     new trust radius        =       0.5000000000 bohr
     new conv_thr            =       0.0000000012 Ry

     new unit-cell volume =    173.59341 a.u.^3 (    25.72389 Ang^3 )
     density =     16.00706 g/cm^3

CELL_PARAMETERS (alat=  3.18422300)
   1.234181397   0.000000000   0.000000000
  -0.617090699   1.068832443   0.000000000
   0.000000000   0.000000000   4.076000000

ATOMIC_POSITIONS (crystal)
W             0.3333330000        0.6666670000        0.2782680855
S            -0.0000000000       -0.0000000000        0.6300359715
S             0.6666670000        0.3333330000        0.1013059430



     Writing config-only to output data dir ./out/aiida.save/
     NEW-OLD atomic charge density approx. for the potential

     negative rho (up, down):  5.149E-02 0.000E+00
     extrapolated charge   34.89623, renormalised to   26.00000

     total cpu time spent up to now is     2033.8 secs

     per-process dynamical memory:    38.6 Mb

     Self-consistent Calculation

     iteration #  1     ecut=    35.00 Ry     beta= 0.40
     Davidson diagonalization with overlap

---- Real-time Memory Report at c_bands before calling an iterative solver
            76 MiB given to the printing process from OS
            37 MiB allocation reported by mallinfo(arena+hblkhd)
        241556 MiB available memory on the node where the printing process lives
------------------
     c_bands:  4 eigenvalues not converged
     c_bands:  2 eigenvalues not converged
     c_bands:  5 eigenvalues not converged
     c_bands:  2 eigenvalues not converged
     c_bands:  1 eigenvalues not converged
     c_bands:  1 eigenvalues not converged
     c_bands:  5 eigenvalues not converged
     c_bands:  5 eigenvalues not converged
     c_bands:  4 eigenvalues not converged
     ethr =  1.00E-06,  avg # of iterations = 30.0

     negative rho (up, down):  2.303E-02 0.000E+00

     total cpu time spent up to now is     2871.3 secs

     total energy              =     211.31066045 Ry
     estimated scf accuracy    <     570.87704891 Ry

     iteration #  2     ecut=    35.00 Ry     beta= 0.40
     Davidson diagonalization with overlap

---- Real-time Memory Report at c_bands before calling an iterative solver
            76 MiB given to the printing process from OS
            37 MiB allocation reported by mallinfo(arena+hblkhd)
        241569 MiB available memory on the node where the printing process lives
------------------
     c_bands:  1 eigenvalues not converged
     c_bands:  1 eigenvalues not converged
     c_bands:  1 eigenvalues not converged
     c_bands:  2 eigenvalues not converged
     c_bands:  2 eigenvalues not converged
     c_bands:  2 eigenvalues not converged
     c_bands:  2 eigenvalues not converged
     c_bands:  3 eigenvalues not converged
     c_bands:  5 eigenvalues not converged
     c_bands:  2 eigenvalues not converged
     c_bands:  1 eigenvalues not converged
     c_bands:  1 eigenvalues not converged
     c_bands:  1 eigenvalues not converged
     c_bands:  1 eigenvalues not converged
     c_bands:  4 eigenvalues not converged
     ethr =  1.00E-02,  avg # of iterations = 20.1

     negative rho (up, down):  2.969E-02 0.000E+00

     total cpu time spent up to now is     3539.4 secs

     total energy              =    -297.48781002 Ry
     estimated scf accuracy    <     413.50975597 Ry

     iteration #  3     ecut=    35.00 Ry     beta= 0.40
     Davidson diagonalization with overlap

---- Real-time Memory Report at c_bands before calling an iterative solver
            76 MiB given to the printing process from OS
            37 MiB allocation reported by mallinfo(arena+hblkhd)
        241561 MiB available memory on the node where the printing process lives
------------------
     ethr =  1.00E-02,  avg # of iterations =  3.5

     negative rho (up, down):  3.426E-02 0.000E+00

     total cpu time spent up to now is     3686.9 secs

     total energy              =    -234.06250280 Ry
     estimated scf accuracy    <     215.56872283 Ry

     iteration #  4     ecut=    35.00 Ry     beta= 0.40
     Davidson diagonalization with overlap

---- Real-time Memory Report at c_bands before calling an iterative solver
            76 MiB given to the printing process from OS
            37 MiB allocation reported by mallinfo(arena+hblkhd)
        241556 MiB available memory on the node where the printing process lives
------------------
     ethr =  1.00E-02,  avg # of iterations =  3.1

     negative rho (up, down):  3.557E-02 0.000E+00

     total cpu time spent up to now is     3829.0 secs

     total energy              =    -226.47606739 Ry
     estimated scf accuracy    <     113.04476949 Ry

     iteration #  5     ecut=    35.00 Ry     beta= 0.40
     Davidson diagonalization with overlap

---- Real-time Memory Report at c_bands before calling an iterative solver
            76 MiB given to the printing process from OS
            37 MiB allocation reported by mallinfo(arena+hblkhd)
        241557 MiB available memory on the node where the printing process lives
------------------
     ethr =  1.00E-02,  avg # of iterations =  2.1

     negative rho (up, down):  3.993E-02 0.000E+00

     total cpu time spent up to now is     3938.3 secs

     total energy              =    -207.19531042 Ry
     estimated scf accuracy    <      93.47099681 Ry

     iteration #  6     ecut=    35.00 Ry     beta= 0.40
     Davidson diagonalization with overlap

---- Real-time Memory Report at c_bands before calling an iterative solver
            76 MiB given to the printing process from OS
            37 MiB allocation reported by mallinfo(arena+hblkhd)
        241558 MiB available memory on the node where the printing process lives
------------------
     ethr =  1.00E-02,  avg # of iterations =  3.4

     negative rho (up, down):  4.091E-02 0.000E+00

     total cpu time spent up to now is     4072.2 secs

     total energy              =    -208.07794424 Ry
     estimated scf accuracy    <      30.75355498 Ry

     iteration #  7     ecut=    35.00 Ry     beta= 0.40
     Davidson diagonalization with overlap

---- Real-time Memory Report at c_bands before calling an iterative solver
            76 MiB given to the printing process from OS
            37 MiB allocation reported by mallinfo(arena+hblkhd)
        241551 MiB available memory on the node where the printing process lives
------------------
     ethr =  1.00E-02,  avg # of iterations =  2.0

     negative rho (up, down):  4.093E-02 0.000E+00

     total cpu time spent up to now is     4172.5 secs

     total energy              =    -213.47099033 Ry
     estimated scf accuracy    <      23.19947269 Ry

     iteration #  8     ecut=    35.00 Ry     beta= 0.40
     Davidson diagonalization with overlap

---- Real-time Memory Report at c_bands before calling an iterative solver
            76 MiB given to the printing process from OS
            37 MiB allocation reported by mallinfo(arena+hblkhd)
        241555 MiB available memory on the node where the printing process lives
------------------
     ethr =  1.00E-02,  avg # of iterations =  3.6

     negative rho (up, down):  4.485E-02 0.000E+00

     total cpu time spent up to now is     4288.5 secs

     total energy              =    -203.45726381 Ry
     estimated scf accuracy    <      68.04267349 Ry

     iteration #  9     ecut=    35.00 Ry     beta= 0.40
     Davidson diagonalization with overlap

---- Real-time Memory Report at c_bands before calling an iterative solver
            76 MiB given to the printing process from OS
            37 MiB allocation reported by mallinfo(arena+hblkhd)
        241557 MiB available memory on the node where the printing process lives
------------------
     ethr =  1.00E-02,  avg # of iterations =  3.3

     negative rho (up, down):  5.303E-02 0.000E+00

     total cpu time spent up to now is     4415.9 secs

     total energy              =    -197.11447875 Ry
     estimated scf accuracy    <      13.71099990 Ry

     iteration # 10     ecut=    35.00 Ry     beta= 0.40
     Davidson diagonalization with overlap

---- Real-time Memory Report at c_bands before calling an iterative solver
            76 MiB given to the printing process from OS
            37 MiB allocation reported by mallinfo(arena+hblkhd)
        241554 MiB available memory on the node where the printing process lives
------------------
     ethr =  1.00E-02,  avg # of iterations =  8.2

     negative rho (up, down):  6.100E-02 0.000E+00

     total cpu time spent up to now is     4647.1 secs

     total energy              =    -263.93054254 Ry
     estimated scf accuracy    <     188.55673337 Ry

     iteration # 11     ecut=    35.00 Ry     beta= 0.40
     Davidson diagonalization with overlap

---- Real-time Memory Report at c_bands before calling an iterative solver
            76 MiB given to the printing process from OS
            37 MiB allocation reported by mallinfo(arena+hblkhd)
        241556 MiB available memory on the node where the printing process lives
------------------
     ethr =  1.00E-02,  avg # of iterations =  8.4

     negative rho (up, down):  5.311E-02 0.000E+00

     total cpu time spent up to now is     4853.5 secs

     total energy              =    -225.99272188 Ry
     estimated scf accuracy    <     675.03422479 Ry

     iteration # 12     ecut=    35.00 Ry     beta= 0.40
     Davidson diagonalization with overlap

---- Real-time Memory Report at c_bands before calling an iterative solver
            76 MiB given to the printing process from OS
            37 MiB allocation reported by mallinfo(arena+hblkhd)
        241551 MiB available memory on the node where the printing process lives
------------------
     ethr =  1.00E-02,  avg # of iterations =  6.0

     negative rho (up, down):  5.102E-02 0.000E+00

     total cpu time spent up to now is     5013.7 secs

     total energy              =    -191.14190017 Ry
     estimated scf accuracy    <     290.18617835 Ry

     iteration # 13     ecut=    35.00 Ry     beta= 0.40
     Davidson diagonalization with overlap

---- Real-time Memory Report at c_bands before calling an iterative solver
            76 MiB given to the printing process from OS
            37 MiB allocation reported by mallinfo(arena+hblkhd)
        241553 MiB available memory on the node where the printing process lives
------------------
     ethr =  1.00E-02,  avg # of iterations =  7.6

     negative rho (up, down):  5.109E-02 0.000E+00

     total cpu time spent up to now is     5224.4 secs

     total energy              =    -204.63762402 Ry
     estimated scf accuracy    <      12.90574063 Ry

     iteration # 14     ecut=    35.00 Ry     beta= 0.40
     Davidson diagonalization with overlap

---- Real-time Memory Report at c_bands before calling an iterative solver
            76 MiB given to the printing process from OS
            37 MiB allocation reported by mallinfo(arena+hblkhd)
        241555 MiB available memory on the node where the printing process lives
------------------
     ethr =  1.00E-02,  avg # of iterations =  1.6

     negative rho (up, down):  4.563E-02 0.000E+00

     total cpu time spent up to now is     5322.4 secs

     total energy              =    -203.60163368 Ry
     estimated scf accuracy    <       5.43500471 Ry

     iteration # 15     ecut=    35.00 Ry     beta= 0.40
     Davidson diagonalization with overlap

---- Real-time Memory Report at c_bands before calling an iterative solver
            76 MiB given to the printing process from OS
            37 MiB allocation reported by mallinfo(arena+hblkhd)
        241548 MiB available memory on the node where the printing process lives
------------------
     ethr =  1.00E-02,  avg # of iterations =  2.9

     negative rho (up, down):  4.049E-02 0.000E+00

     total cpu time spent up to now is     5433.8 secs

     total energy              =    -204.35566481 Ry
     estimated scf accuracy    <       0.59450798 Ry

     iteration # 16     ecut=    35.00 Ry     beta= 0.40
     Davidson diagonalization with overlap

---- Real-time Memory Report at c_bands before calling an iterative solver
            76 MiB given to the printing process from OS
            37 MiB allocation reported by mallinfo(arena+hblkhd)
        241547 MiB available memory on the node where the printing process lives
------------------
     ethr =  2.29E-03,  avg # of iterations =  2.8

     negative rho (up, down):  3.969E-02 0.000E+00

     total cpu time spent up to now is     5546.9 secs

     total energy              =    -204.14405465 Ry
     estimated scf accuracy    <       1.69972124 Ry

     iteration # 17     ecut=    35.00 Ry     beta= 0.40
     Davidson diagonalization with overlap

---- Real-time Memory Report at c_bands before calling an iterative solver
            76 MiB given to the printing process from OS
            37 MiB allocation reported by mallinfo(arena+hblkhd)
        241550 MiB available memory on the node where the printing process lives
------------------
     ethr =  2.29E-03,  avg # of iterations =  2.4

     negative rho (up, down):  4.317E-02 0.000E+00

     total cpu time spent up to now is     5656.4 secs

     total energy              =    -203.90427312 Ry
     estimated scf accuracy    <       1.53354460 Ry

     iteration # 18     ecut=    35.00 Ry     beta= 0.40
     Davidson diagonalization with overlap

---- Real-time Memory Report at c_bands before calling an iterative solver
            76 MiB given to the printing process from OS
            37 MiB allocation reported by mallinfo(arena+hblkhd)
        241551 MiB available memory on the node where the printing process lives
------------------
     ethr =  2.29E-03,  avg # of iterations =  2.1

     negative rho (up, down):  4.366E-02 0.000E+00

     total cpu time spent up to now is     5768.1 secs

     total energy              =    -204.15159964 Ry
     estimated scf accuracy    <       1.53393449 Ry

     iteration # 19     ecut=    35.00 Ry     beta= 0.40
     Davidson diagonalization with overlap

---- Real-time Memory Report at c_bands before calling an iterative solver
            76 MiB given to the printing process from OS
            37 MiB allocation reported by mallinfo(arena+hblkhd)
        241545 MiB available memory on the node where the printing process lives
------------------
     ethr =  2.29E-03,  avg # of iterations =  1.0

     negative rho (up, down):  4.716E-02 0.000E+00

     total cpu time spent up to now is     5865.0 secs

     total energy              =    -204.04522844 Ry
     estimated scf accuracy    <       1.15816040 Ry

     iteration # 20     ecut=    35.00 Ry     beta= 0.40
     Davidson diagonalization with overlap

---- Real-time Memory Report at c_bands before calling an iterative solver
            76 MiB given to the printing process from OS
            37 MiB allocation reported by mallinfo(arena+hblkhd)
        241546 MiB available memory on the node where the printing process lives
------------------
     ethr =  2.29E-03,  avg # of iterations =  1.0

     negative rho (up, down):  5.191E-02 0.000E+00

     total cpu time spent up to now is     5961.9 secs

     total energy              =    -203.99916553 Ry
     estimated scf accuracy    <       0.50899032 Ry

     iteration # 21     ecut=    35.00 Ry     beta= 0.40
     Davidson diagonalization with overlap

---- Real-time Memory Report at c_bands before calling an iterative solver
            76 MiB given to the printing process from OS
            37 MiB allocation reported by mallinfo(arena+hblkhd)
        241543 MiB available memory on the node where the printing process lives
------------------
     ethr =  1.96E-03,  avg # of iterations =  1.2

     negative rho (up, down):  5.356E-02 0.000E+00

     total cpu time spent up to now is     6058.7 secs

     total energy              =    -204.00540017 Ry
     estimated scf accuracy    <       0.06910813 Ry

     iteration # 22     ecut=    35.00 Ry     beta= 0.40
     Davidson diagonalization with overlap

---- Real-time Memory Report at c_bands before calling an iterative solver
            76 MiB given to the printing process from OS
            37 MiB allocation reported by mallinfo(arena+hblkhd)
        241545 MiB available memory on the node where the printing process lives
------------------
     ethr =  2.66E-04,  avg # of iterations =  3.2

     negative rho (up, down):  5.335E-02 0.000E+00

     total cpu time spent up to now is     6177.1 secs

     total energy              =    -204.01520912 Ry
     estimated scf accuracy    <       0.01067178 Ry

     iteration # 23     ecut=    35.00 Ry     beta= 0.40
     Davidson diagonalization with overlap

---- Real-time Memory Report at c_bands before calling an iterative solver
            76 MiB given to the printing process from OS
            37 MiB allocation reported by mallinfo(arena+hblkhd)
        241544 MiB available memory on the node where the printing process lives
------------------
     ethr =  4.10E-05,  avg # of iterations =  3.4

     negative rho (up, down):  5.358E-02 0.000E+00

     total cpu time spent up to now is     6286.8 secs

     total energy              =    -204.01632751 Ry
     estimated scf accuracy    <       0.00054472 Ry

     iteration # 24     ecut=    35.00 Ry     beta= 0.40
     Davidson diagonalization with overlap

---- Real-time Memory Report at c_bands before calling an iterative solver
            76 MiB given to the printing process from OS
            37 MiB allocation reported by mallinfo(arena+hblkhd)
        241546 MiB available memory on the node where the printing process lives
------------------
     ethr =  2.10E-06,  avg # of iterations =  4.9

     negative rho (up, down):  5.370E-02 0.000E+00

     total cpu time spent up to now is     6421.4 secs

     total energy              =    -204.01639437 Ry
     estimated scf accuracy    <       0.00010566 Ry

     iteration # 25     ecut=    35.00 Ry     beta= 0.40
     Davidson diagonalization with overlap

---- Real-time Memory Report at c_bands before calling an iterative solver
            76 MiB given to the printing process from OS
            37 MiB allocation reported by mallinfo(arena+hblkhd)
        241543 MiB available memory on the node where the printing process lives
------------------
     ethr =  4.06E-07,  avg # of iterations =  2.0

     negative rho (up, down):  5.371E-02 0.000E+00

     total cpu time spent up to now is     6528.6 secs

     total energy              =    -204.01640944 Ry
     estimated scf accuracy    <       0.00003526 Ry

     iteration # 26     ecut=    35.00 Ry     beta= 0.40
     Davidson diagonalization with overlap

---- Real-time Memory Report at c_bands before calling an iterative solver
            76 MiB given to the printing process from OS
            37 MiB allocation reported by mallinfo(arena+hblkhd)
        241544 MiB available memory on the node where the printing process lives
------------------
     ethr =  1.36E-07,  avg # of iterations =  1.0

     negative rho (up, down):  5.375E-02 0.000E+00

     total cpu time spent up to now is     6624.5 secs

     total energy              =    -204.01641337 Ry
     estimated scf accuracy    <       0.00000240 Ry

     iteration # 27     ecut=    35.00 Ry     beta= 0.40
     Davidson diagonalization with overlap

---- Real-time Memory Report at c_bands before calling an iterative solver
            76 MiB given to the printing process from OS
            37 MiB allocation reported by mallinfo(arena+hblkhd)
        241541 MiB available memory on the node where the printing process lives
------------------
     ethr =  9.25E-09,  avg # of iterations =  1.9

     negative rho (up, down):  5.377E-02 0.000E+00

     total cpu time spent up to now is     6727.5 secs

     total energy              =    -204.01641362 Ry
     estimated scf accuracy    <       0.00000011 Ry

     iteration # 28     ecut=    35.00 Ry     beta= 0.40
     Davidson diagonalization with overlap

---- Real-time Memory Report at c_bands before calling an iterative solver
            76 MiB given to the printing process from OS
            37 MiB allocation reported by mallinfo(arena+hblkhd)
        241541 MiB available memory on the node where the printing process lives
------------------
     ethr =  4.08E-10,  avg # of iterations =  3.7

     negative rho (up, down):  5.378E-02 0.000E+00

     total cpu time spent up to now is     6857.2 secs

     total energy              =    -204.01641366 Ry
     estimated scf accuracy    <          9.4E-09 Ry

     iteration # 29     ecut=    35.00 Ry     beta= 0.40
     Davidson diagonalization with overlap

---- Real-time Memory Report at c_bands before calling an iterative solver
            76 MiB given to the printing process from OS
            37 MiB allocation reported by mallinfo(arena+hblkhd)
        241544 MiB available memory on the node where the printing process lives
------------------
     ethr =  3.61E-11,  avg # of iterations =  2.3

     negative rho (up, down):  5.378E-02 0.000E+00

     total cpu time spent up to now is     6969.2 secs

     total energy              =    -204.01641366 Ry
     estimated scf accuracy    <          2.5E-09 Ry

     iteration # 30     ecut=    35.00 Ry     beta= 0.40
     Davidson diagonalization with overlap

---- Real-time Memory Report at c_bands before calling an iterative solver
            76 MiB given to the printing process from OS
            37 MiB allocation reported by mallinfo(arena+hblkhd)
        241546 MiB available memory on the node where the printing process lives
------------------
     ethr =  9.57E-12,  avg # of iterations =  2.0

     negative rho (up, down):  5.378E-02 0.000E+00

     total cpu time spent up to now is     7080.0 secs

     End of self-consistent calculation

          k = 0.0000 0.0000 0.0000 (   367 PWs)   bands (ev):

   -49.3976 -15.8772  -7.6649  -7.6649   4.2292   6.1085  15.4093  16.4722
    21.4917  21.4918  23.4475  27.9948  29.6065  29.6065  34.8196  38.6303
    39.2863

     occupation numbers 
     1.0000   1.0000   1.0000   1.0000   1.0000   1.0000   1.0000   1.0000
     1.0000   1.0000   1.0000   1.0436   0.0000   0.0000   0.0000   0.0000
     0.0000

          k = 0.0000 0.0585 0.0000 (   371 PWs)   bands (ev):

   -49.3087 -15.7849  -8.3346  -7.8027   4.4019   6.2559  15.9329  16.6929
    20.9862  21.9294  23.4774  27.3056  29.2838  29.3951  35.6670  38.4282
    38.8249

     occupation numbers 
     1.0000   1.0000   1.0000   1.0000   1.0000   1.0000   1.0000   1.0000
     1.0000   1.0000   1.0000   1.0000   0.0000   0.0000   0.0000   0.0000
     0.0000

          k = 0.0000 0.1170 0.0000 (   389 PWs)   bands (ev):

   -49.0512 -15.5168 -10.0486  -8.1924   4.9129   6.6718  16.7287  17.2052
    20.2904  23.1026  23.4659  25.9168  28.6051  29.5278  35.0794  36.0494
    37.7595

     occupation numbers 
     1.0000   1.0000   1.0000   1.0000   1.0000   1.0000   1.0000   1.0000
     1.0000   1.0000   1.0000   1.0000   0.2374   0.0000   0.0000   0.0000
     0.0000

          k = 0.0000 0.1754 0.0000 (   393 PWs)   bands (ev):

   -48.6511 -15.1075 -12.2399  -8.7130   5.7509   7.3113  16.2210  17.6043
    19.8403  24.1803  24.4340  25.7081  28.4306  29.6592  31.7468  34.5873
    36.2774

     occupation numbers 
     1.0000   1.0000   1.0000   1.0000   1.0000   1.0000   1.0000   1.0000
     1.0000   1.0000   1.0000   1.0000   0.6743   0.0000   0.0000   0.0000
     0.0000

          k = 0.0000 0.2339 0.0000 (   391 PWs)   bands (ev):

   -48.1543 -14.9365 -14.1421  -9.2654   6.9001   8.0993  14.6903  17.4697
    19.4047  24.6883  25.0916  26.9970  28.2206  30.0373  30.6183  33.3735
    35.0629

     occupation numbers 
     1.0000   1.0000   1.0000   1.0000   1.0000   1.0000   1.0000   1.0000
     1.0000   1.0000   1.0000   1.0000   1.0613   0.0000   0.0000   0.0000
     0.0000

          k = 0.0000 0.2924 0.0000 (   393 PWs)   bands (ev):

   -47.6260 -16.7059 -13.8303  -9.7659   8.2707   8.9399  13.2228  16.1224
    20.5936  23.7358  24.1945  25.1298  29.8225  31.4380  32.9377  33.3997
    34.1954

     occupation numbers 
     1.0000   1.0000   1.0000   1.0000   1.0000   1.0000   1.0000   1.0000
     1.0000   1.0000   1.0000   1.0000   0.0000   0.0000   0.0000   0.0000
     0.0000

          k = 0.0000 0.3509 0.0000 (   391 PWs)   bands (ev):

   -47.1488 -18.3188 -13.2834 -10.1551   9.0394  10.2915  12.1926  15.3218
    20.6052  22.3085  23.6691  23.8383  29.7596  32.7471  33.3529  34.0705
    36.0132

     occupation numbers 
     1.0000   1.0000   1.0000   1.0000   1.0000   1.0000   1.0000   1.0000
     1.0000   1.0000   1.0000   1.0000   0.0000   0.0000   0.0000   0.0000
     0.0000

          k = 0.0000 0.4093 0.0000 (   402 PWs)   bands (ev):

   -46.8126 -19.3701 -12.8765 -10.4002   8.9607  11.3906  12.5920  15.2917
    17.7265  22.3771  23.3141  24.2477  28.8358  32.8031  32.9647  33.7218
    35.6814

     occupation numbers 
     1.0000   1.0000   1.0000   1.0000   1.0000   1.0000   1.0000   1.0000
     1.0000   1.0000   1.0000   1.0000   0.0192   0.0000   0.0000   0.0000
     0.0000

          k = 0.0000-0.4678 0.0000 (   392 PWs)   bands (ev):

   -46.6908 -19.7357 -12.7247 -10.4833   8.8261  11.3315  14.4164  15.1585
    15.8266  21.7524  23.1914  25.6918  27.5136  32.8318  33.0047  33.6856
    35.3471

     occupation numbers 
     1.0000   1.0000   1.0000   1.0000   1.0000   1.0000   1.0000   1.0000
     1.0000   1.0000   1.0000   1.0000   1.0000   0.0000   0.0000   0.0000
     0.0000

          k = 0.0506 0.0877 0.0000 (   381 PWs)   bands (ev):

   -49.1355 -15.6046  -9.4903  -8.1040   4.7434   6.5372  16.5970  17.1991
    20.2378  22.5565  23.6520  26.3647  28.5448  29.5493  36.4728  36.8532
    37.0586

     occupation numbers 
     1.0000   1.0000   1.0000   1.0000   1.0000   1.0000   1.0000   1.0000
     1.0000   1.0000   1.0000   1.0000   0.3684   0.0000   0.0000   0.0000
     0.0000

          k = 0.0506 0.1462 0.0000 (   386 PWs)   bands (ev):

   -48.8062 -15.2633 -11.3559  -8.6451   5.4179   7.0656  17.1713  17.4314
    19.9364  22.3004  24.7012  26.0975  27.8355  29.9285  33.4343  35.3361
    35.8961

     occupation numbers 
     1.0000   1.0000   1.0000   1.0000   1.0000   1.0000   1.0000   1.0000
     1.0000   1.0000   1.0000   1.0000   1.0085   0.0000   0.0000   0.0000
     0.0000

          k = 0.0506 0.2047 0.0000 (   394 PWs)   bands (ev):

   -48.3564 -14.8490 -13.4433  -9.2852   6.4131   7.7825  15.9402  17.8952
    19.4232  23.2392  25.2810  25.9518  28.7650  29.9285  31.2365  33.8128
    34.3838

     occupation numbers 
     1.0000   1.0000   1.0000   1.0000   1.0000   1.0000   1.0000   1.0000
     1.0000   1.0000   1.0000   1.0000   0.0480   0.0000   0.0000   0.0000
     0.0000

          k = 0.0506 0.2631 0.0000 (   400 PWs)   bands (ev):

   -47.8411 -15.7783 -14.0436  -9.8995   7.6955   8.5979  14.4134  16.9350
    20.0152  23.5603  25.1102  25.9653  27.7383  30.5108  32.4154  33.2569
    33.9822

     occupation numbers 
     1.0000   1.0000   1.0000   1.0000   1.0000   1.0000   1.0000   1.0000
     1.0000   1.0000   1.0000   1.0000   1.0021   0.0000   0.0000   0.0000
     0.0000

          k = 0.0506 0.3216 0.0000 (   402 PWs)   bands (ev):

   -47.3337 -17.5347 -13.5060 -10.4120   8.9078   9.6083  13.1437  15.8396
    21.4168  22.3491  22.9627  24.8877  29.7285  31.0520  31.7899  34.2309
    35.5043

     occupation numbers 
     1.0000   1.0000   1.0000   1.0000   1.0000   1.0000   1.0000   1.0000
     1.0000   1.0000   1.0000   1.0000   0.0000   0.0000   0.0000   0.0000
     0.0000

          k = 0.0506 0.3801 0.0000 (   401 PWs)   bands (ev):

   -46.9217 -18.8471 -13.0196 -10.7743   9.1532  11.3087  12.5009  15.4499
    19.2463  22.2680  23.1686  23.7808  29.5552  31.0643  32.7989  34.8281
    35.0833

     occupation numbers 
     1.0000   1.0000   1.0000   1.0000   1.0000   1.0000   1.0000   1.0000
     1.0000   1.0000   1.0000   1.0000   0.0000   0.0000   0.0000   0.0000
     0.0000

          k = 0.0506 0.4386 0.0000 (   403 PWs)   bands (ev):

   -46.6889 -19.5480 -12.7353 -10.9610   8.9974  11.9114  13.7666  15.5373
    16.5628  21.8742  22.5081  25.3544  28.1526  30.8131  33.0054  34.4564
    35.5026

     occupation numbers 
     1.0000   1.0000   1.0000   1.0000   1.0000   1.0000   1.0000   1.0000
     1.0000   1.0000   1.0000   1.0000   1.0832   0.0000   0.0000   0.0000
     0.0000

          k = 0.1013 0.1754 0.0000 (   395 PWs)   bands (ev):

   -48.4261 -14.8948 -13.0070  -9.4422   6.2493   7.6749  17.0370  18.0385
    19.7542  21.4474  25.2616  25.4225  29.1579  30.6320  31.6417  32.6939
    35.3272

     occupation numbers 
     1.0000   1.0000   1.0000   1.0000   1.0000   1.0000   1.0000   1.0000
     1.0000   1.0000   1.0000   1.0000   0.0001   0.0000   0.0000   0.0000
     0.0000

          k = 0.1013 0.2339 0.0000 (   398 PWs)   bands (ev):

   -47.9543 -15.1186 -14.0798 -10.3209   7.3900   8.4324  15.9761  17.9431
    19.8046  22.4673  24.3821  25.5857  27.8125  29.7923  31.9508  33.5339
    34.2677

     occupation numbers 
     1.0000   1.0000   1.0000   1.0000   1.0000   1.0000   1.0000   1.0000
     1.0000   1.0000   1.0000   1.0000   1.0063   0.0000   0.0000   0.0000
     0.0000

          k = 0.1013 0.2924 0.0000 (   400 PWs)   bands (ev):

   -47.4532 -16.7056 -13.6443 -11.1152   8.7011   9.2975  14.7565  16.9572
    20.9364  22.0318  24.1219  25.6519  26.6025  29.0332  31.1523  33.8670
    35.4413

     occupation numbers 
     1.0000   1.0000   1.0000   1.0000   1.0000   1.0000   1.0000   1.0000
     1.0000   1.0000   1.0000   1.0000   1.0000   0.0008   0.0000   0.0000
     0.0000

          k = 0.1013 0.3509 0.0000 (   404 PWs)   bands (ev):

   -47.0016 -18.0987 -13.1343 -11.7187   9.3694  10.8026  13.8755  16.3422
    20.8704  21.1520  22.8595  24.5288  28.3233  29.2447  31.0989  33.8712
    34.9548

     occupation numbers 
     1.0000   1.0000   1.0000   1.0000   1.0000   1.0000   1.0000   1.0000
     1.0000   1.0000   1.0000   1.0000   0.9309   0.0000   0.0000   0.0000
     0.0000

          k = 0.1013 0.4093 0.0000 (   407 PWs)   bands (ev):

   -46.6840 -19.0244 -12.7656 -12.0863   9.4094  12.6542  13.6558  16.2299
    18.1717  20.6153  23.0116  24.8004  27.8999  29.2063  32.2130  33.6406
    35.2806

     occupation numbers 
     1.0000   1.0000   1.0000   1.0000   1.0000   1.0000   1.0000   1.0000
     1.0000   1.0000   1.0000   1.0000   1.0182   0.0000   0.0000   0.0000
     0.0000

          k = 0.1013 0.4678 0.0000 (   403 PWs)   bands (ev):

   -46.5691 -19.3497 -12.6363 -12.2022   9.3441  13.1367  14.9996  15.8445
    16.4180  20.5892  22.3248  26.1808  27.5659  28.2743  32.0317  34.4397
    36.0148

     occupation numbers 
     1.0000   1.0000   1.0000   1.0000   1.0000   1.0000   1.0000   1.0000
     1.0000   1.0000   1.0000   1.0000   1.0001   1.0091   0.0000   0.0000
     0.0000

          k = 0.1519 0.2631 0.0000 (   407 PWs)   bands (ev):

   -47.4945 -16.3015 -13.6846 -11.5319   8.5950   9.2204  15.6297  17.6246
    20.8908  22.3376  23.5866  25.4734  26.6859  26.9254  31.9748  32.8691
    35.1462

     occupation numbers 
     1.0000   1.0000   1.0000   1.0000   1.0000   1.0000   1.0000   1.0000
     1.0000   1.0000   1.0000   1.0000   1.0000   1.0000   0.0000   0.0000
     0.0000

          k = 0.1519 0.3216 0.0000 (   405 PWs)   bands (ev):

   -47.0435 -17.4388 -13.1926 -12.5940   9.4752  10.5270  15.1139  17.0379
    21.1111  22.4421  23.1706  25.1190  25.9269  26.0729  31.0287  32.4862
    35.9905

     occupation numbers 
     1.0000   1.0000   1.0000   1.0000   1.0000   1.0000   1.0000   1.0000
     1.0000   1.0000   1.0000   1.0000   1.0000   1.0000   0.0000   0.0000
     0.0000

          k = 0.1519 0.3801 0.0000 (   402 PWs)   bands (ev):

   -46.6789 -18.3196 -13.3675 -12.7549   9.8334  12.3776  14.5601  16.9739
    19.9708  20.5109  23.9790  24.2939  25.3933  28.3427  30.5328  32.2410
    34.9075

     occupation numbers 
     1.0000   1.0000   1.0000   1.0000   1.0000   1.0000   1.0000   1.0000
     1.0000   1.0000   1.0000   1.0000   1.0000   0.8921   0.0000   0.0000
     0.0000

          k = 0.1519 0.4386 0.0000 (   403 PWs)   bands (ev):

   -46.4738 -18.8090 -13.7538 -12.5169   9.9330  13.8767  14.8160  17.1292
    17.5683  19.9748  23.0916  24.8446  26.1896  28.4147  30.7818  32.3459
    35.2855

     occupation numbers 
     1.0000   1.0000   1.0000   1.0000   1.0000   1.0000   1.0000   1.0000
     1.0000   1.0000   1.0000   1.0000   1.0000   0.7172   0.0000   0.0000
     0.0000

          k = 0.2026 0.3509 0.0000 (   401 PWs)   bands (ev):

   -46.6769 -17.9195 -13.9784 -12.7714  10.0121  12.2486  15.1412  16.5120
    21.5473  22.0948  23.0937  24.0867  24.8606  26.4203  29.6843  32.2453
    35.7528

     occupation numbers 
     1.0000   1.0000   1.0000   1.0000   1.0000   1.0000   1.0000   1.0000
     1.0000   1.0000   1.0000   1.0000   1.0000   1.0000   0.0000   0.0000
     0.0000

          k = 0.2026 0.4093 0.0000 (   406 PWs)   bands (ev):

   -46.4210 -18.1600 -14.9679 -12.4803  10.4835  14.0252  14.4486  16.9318
    19.5091  21.4536  22.7697  24.2337  25.5554  27.6232  29.3020  31.5203
    34.9328

     occupation numbers 
     1.0000   1.0000   1.0000   1.0000   1.0000   1.0000   1.0000   1.0000
     1.0000   1.0000   1.0000   1.0000   1.0000   1.0003   0.0000   0.0000
     0.0000

          k = 0.2026 0.4678 0.0000 (   403 PWs)   bands (ev):

   -46.3290 -18.2238 -15.3340 -12.3743  10.7343  13.6318  16.1044  17.0461
    17.7057  21.2952  22.6421  23.9684  26.2037  28.0741  29.8696  30.8250
    34.7230

     occupation numbers 
     1.0000   1.0000   1.0000   1.0000   1.0000   1.0000   1.0000   1.0000
     1.0000   1.0000   1.0000   1.0000   1.0000   1.0702   0.0000   0.0000
     0.0000

          k = 0.2532 0.4386 0.0000 (   403 PWs)   bands (ev):

   -46.2773 -17.6630 -16.2491 -12.3232  11.3576  12.9996  16.2140  17.3643
    18.9566  19.6515  23.6943  24.9184  25.3808  28.1647  28.6136  30.9485
    33.7498

     occupation numbers 
     1.0000   1.0000   1.0000   1.0000   1.0000   1.0000   1.0000   1.0000
     1.0000   1.0000   1.0000   1.0000   1.0000   1.0822   0.2215   0.0000
     0.0000

     the Fermi energy is    28.5318 ev

!    total energy              =    -204.01641366 Ry
     estimated scf accuracy    <          5.0E-10 Ry
     smearing contrib. (-TS)   =       0.00020402 Ry
     internal energy E=F+TS    =    -204.01661768 Ry

     The total energy is F=E-TS. E is the sum of the following terms:
     one-electron contribution =    -147.95761377 Ry
     hartree contribution      =      99.91440584 Ry
     xc contribution           =     -61.63936021 Ry
     ewald contribution        =     -94.33404954 Ry

     convergence has been achieved in  30 iterations

     negative rho (up, down):  5.378E-02 0.000E+00

     Forces acting on atoms (cartesian axes, Ry/au):

     atom    1 type  2   force =     0.00000000    0.00000000    2.47943145
     atom    2 type  1   force =     0.00000000    0.00000000    0.07449939
     atom    3 type  1   force =     0.00000000    0.00000000   -2.55393084
     The non-local contrib.  to forces
     atom    1 type  2   force =     0.00000000    0.00000000   -1.06329285
     atom    2 type  1   force =     0.00000000    0.00000000   -0.07720969
     atom    3 type  1   force =     0.00000000    0.00000000   -1.04448092
     The ionic contribution  to forces
     atom    1 type  2   force =     0.00001094   -0.00000632   24.48473453
     atom    2 type  1   force =    -0.00000009    0.00000005   21.40327352
     atom    3 type  1   force =    -0.00001085    0.00000627  -45.88800805
     The local contribution  to forces
     atom    1 type  2   force =     0.00005336   -0.00003081  -20.85962214
     atom    2 type  1   force =     0.00000000   -0.00000000  -21.25334147
     atom    3 type  1   force =     0.00000064   -0.00000037   44.27564660
     The core correction contribution to forces
     atom    1 type  2   force =    -0.00000129    0.00000074   -0.08225795
     atom    2 type  1   force =     0.00000000   -0.00000000    0.00172840
     atom    3 type  1   force =     0.00000079   -0.00000045    0.10299026
     The Hubbard contrib.    to forces
     atom    1 type  2   force =     0.00000000    0.00000000    0.00000000
     atom    2 type  1   force =     0.00000000    0.00000000    0.00000000
     atom    3 type  1   force =     0.00000000    0.00000000    0.00000000
     The SCF correction term to forces
     atom    1 type  2   force =    -0.00000000    0.00000000   -0.00012301
     atom    2 type  1   force =     0.00000000   -0.00000000    0.00005576
     atom    3 type  1   force =    -0.00000000    0.00000000   -0.00007161

     Total force =     3.560294     Total SCF correction =     0.000153


     Computing stress (Cartesian axis) and pressure


     negative rho (up, down):  5.378E-02 0.000E+00
          total   stress  (Ry/bohr**3)                   (kbar)     P=     6866.48
   0.05216614   0.00000000   0.00000000         7673.90        0.00        0.00
   0.00000000   0.05216614  -0.00000000            0.00     7673.90       -0.00
   0.00000000  -0.00000000   0.03569982            0.00       -0.00     5251.62

     kinetic stress (kbar)  42389.85      0.00      0.00
                                0.00  42389.85     -0.00
                                0.00     -0.00  42430.73

     local   stress (kbar)-144293.88     -0.01     -0.01
                               -0.01-144293.89      0.00
[...]
     1.0000   1.0000   1.0000   1.0000   1.0000   1.0000   1.0000   1.0000
     1.0000   1.0000   1.0007   0.0682   0.0247   0.0000   0.0000   0.0000
     0.0000

          k = 0.0000 0.1955 0.0000 (   872 PWs)   bands (ev):

   -54.7529 -19.4006 -19.3896 -18.1298   1.8494   2.9241  10.7561  13.2830
    14.2085  15.5833  16.7790  18.6841  19.6439  20.5895  21.9782  22.3010
    23.7283

     occupation numbers 
     1.0000   1.0000   1.0000   1.0000   1.0000   1.0000   1.0000   1.0000
     1.0000   1.0000   1.0000   1.0253   0.0085   0.0000   0.0000   0.0000
     0.0000

          k = 0.0000 0.2443 0.0000 (   864 PWs)   bands (ev):

   -54.6780 -19.9532 -19.2831 -18.2608   2.8547   3.7406  11.3491  12.8301
    13.3811  14.2307  15.4659  19.0886  19.5125  20.4751  21.6402  23.4901
    23.9364

     occupation numbers 
     1.0000   1.0000   1.0000   1.0000   1.0000   1.0000   1.0000   1.0000
     1.0000   1.0000   1.0000   0.9047   0.0507   0.0000   0.0000   0.0000
     0.0000

          k = 0.0000 0.2932 0.0000 (   848 PWs)   bands (ev):

   -54.6138 -20.4068 -19.1841 -18.3691   4.0183   4.6665  11.1135  11.4356
    12.7293  13.9155  14.7658  18.6506  19.5030  20.1389  22.2945  23.6586
    24.5753

     occupation numbers 
     1.0000   1.0000   1.0000   1.0000   1.0000   1.0000   1.0000   1.0000
     1.0000   1.0000   1.0000   1.0179   0.0567   0.0000   0.0000   0.0000
     0.0000

          k = 0.0000 0.3421 0.0000 (   858 PWs)   bands (ev):

   -54.5707 -20.7013 -19.1178 -18.4414   5.1635   5.6362   9.6556  10.4672
    12.0730  14.3975  14.8513  18.3785  18.5658  19.9004  23.1747  23.4836
    24.7380

     occupation numbers 
     1.0000   1.0000   1.0000   1.0000   1.0000   1.0000   1.0000   1.0000
     1.0000   1.0000   1.0000   1.0003   1.0064   0.0001   0.0000   0.0000
     0.0000

          k =-0.0000-0.3909 0.0000 (   864 PWs)   bands (ev):

   -54.5555 -20.8033 -19.0946 -18.4664   5.6745   6.3242   8.6939  10.0508
    11.8673  14.3044  15.4370  17.9411  18.2866  19.8173  23.4229  23.8672
    24.0085

     occupation numbers 
     1.0000   1.0000   1.0000   1.0000   1.0000   1.0000   1.0000   1.0000
     1.0000   1.0000   1.0000   1.0000   1.0000   0.0004   0.0000   0.0000
     0.0000

          k = 0.0423 0.0733 0.0000 (   875 PWs)   bands (ev):

   -54.9028 -19.6222 -18.1500 -17.8557   0.3333   1.6799   9.1001  13.2410
    14.0763  17.0593  18.4634  20.7986  21.0043  22.4678  22.5625  23.0289
    24.2762

     occupation numbers 
     1.0000   1.0000   1.0000   1.0000   1.0000   1.0000   1.0000   1.0000
     1.0000   1.0000   1.0014   0.0000   0.0000   0.0000   0.0000   0.0000
     0.0000

          k = 0.0423 0.1222 0.0000 (   883 PWs)   bands (ev):

   -54.8510 -19.5454 -18.5882 -17.9666   0.8086   2.0695   9.7014  13.8499
    14.0069  16.3909  19.2279  19.2615  19.8931  20.9641  21.9627  23.1814
    23.5624

     occupation numbers 
     1.0000   1.0000   1.0000   1.0000   1.0000   1.0000   1.0000   1.0000
     1.0000   1.0000   0.5491   0.4583   0.0001   0.0000   0.0000   0.0000
     0.0000

          k = 0.0423 0.1710 0.0000 (   876 PWs)   bands (ev):

   -54.7827 -19.4426 -19.1329 -18.1079   1.5072   2.6435  10.4713  13.5432
    14.4841  15.9004  17.5123  18.4973  19.5668  20.3276  21.8597  22.4826
    23.6422

     occupation numbers 
     1.0000   1.0000   1.0000   1.0000   1.0000   1.0000   1.0000   1.0000
     1.0000   1.0000   1.0000   1.0024   0.0256   0.0000   0.0000   0.0000
     0.0000

          k = 0.0423 0.2199 0.0000 (   870 PWs)   bands (ev):

   -54.7081 -19.6929 -19.3294 -18.2568   2.4146   3.3852  11.2539  13.0838
    14.0300  14.9440  15.9904  18.5531  19.0231  19.9966  21.7162  23.0307
    23.6102

     occupation numbers 
     1.0000   1.0000   1.0000   1.0000   1.0000   1.0000   1.0000   1.0000
     1.0000   1.0000   1.0000   1.0054   1.0133   0.0000   0.0000   0.0000
     0.0000

          k = 0.0423 0.2688 0.0000 (   868 PWs)   bands (ev):

   -54.6385 -20.1872 -19.2229 -18.3909   3.5061   4.2622  11.5127  12.3470
    13.1061  13.9493  14.9878  18.3891  19.4271  19.6402  21.5766  23.3045
    23.7772

     occupation numbers 
     1.0000   1.0000   1.0000   1.0000   1.0000   1.0000   1.0000   1.0000
     1.0000   1.0000   1.0000   1.0004   0.1276   0.0090   0.0000   0.0000
     0.0000

          k = 0.0423 0.3176 0.0000 (   858 PWs)   bands (ev):

   -54.5847 -20.5518 -19.1399 -18.4907   4.7033   5.2147  10.5620  10.9473
    12.5407  14.3502  14.5824  17.9625  18.8503  19.4723  22.4309  23.1699
    24.3152

     occupation numbers 
     1.0000   1.0000   1.0000   1.0000   1.0000   1.0000   1.0000   1.0000
     1.0000   1.0000   1.0000   1.0000   1.0769   0.0801   0.0000   0.0000
     0.0000

          k = 0.0423 0.3665 0.0000 (   861 PWs)   bands (ev):

   -54.5555 -20.7450 -19.0949 -18.5442   5.6226   6.1612   9.0763  10.2358
    12.1416  14.3905  15.2393  17.7440  18.0716  19.1931  22.6662  23.7282
    24.5064

     occupation numbers 
     1.0000   1.0000   1.0000   1.0000   1.0000   1.0000   1.0000   1.0000
     1.0000   1.0000   1.0000   1.0000   1.0000   0.6454   0.0000   0.0000
     0.0000

          k = 0.0846 0.1466 0.0000 (   885 PWs)   bands (ev):

   -54.7932 -19.4588 -19.0218 -18.1214   1.3926   2.5494  10.3801  13.6848
    14.7422  15.7068  17.9289  18.5769  19.3700  20.0405  21.6416  23.1245
    23.1949

     occupation numbers 
     1.0000   1.0000   1.0000   1.0000   1.0000   1.0000   1.0000   1.0000
     1.0000   1.0000   1.0000   1.0074   0.2137   0.0000   0.0000   0.0000
     0.0000

          k = 0.0846 0.1955 0.0000 (   865 PWs)   bands (ev):

   -54.7243 -19.5024 -19.3540 -18.3091   2.1933   3.2054  11.2066  13.3328
    14.8319  15.4080  16.4732  17.4864  18.5448  19.1695  22.1307  22.8396
    23.0401

     occupation numbers 
     1.0000   1.0000   1.0000   1.0000   1.0000   1.0000   1.0000   1.0000
     1.0000   1.0000   1.0000   1.0000   1.0048   0.7099   0.0000   0.0000
     0.0000

          k = 0.0846 0.2443 0.0000 (   872 PWs)   bands (ev):

   -54.6549 -19.9633 -19.2485 -18.4958   3.1928   4.0146  11.9288  12.9758
    13.5788  14.7477  15.1478  17.5836  18.3570  18.5423  21.3694  22.6502
    23.5557

     occupation numbers 
     1.0000   1.0000   1.0000   1.0000   1.0000   1.0000   1.0000   1.0000
     1.0000   1.0000   1.0000   1.0000   1.0002   1.0046   0.0000   0.0000
     0.0000

          k = 0.0846 0.2932 0.0000 (   861 PWs)   bands (ev):

   -54.5953 -20.3395 -19.1574 -18.6499   4.3507   4.9319  11.6221  11.7041
    13.2701  14.1162  14.5934  17.0920  17.8261  19.3571  21.1163  22.4280
    23.5890

     occupation numbers 
     1.0000   1.0000   1.0000   1.0000   1.0000   1.0000   1.0000   1.0000
     1.0000   1.0000   1.0000   1.0000   1.0000   0.2374   0.0000   0.0000
     0.0000

          k = 0.0846 0.3421 0.0000 (   859 PWs)   bands (ev):

   -54.5553 -20.5855 -19.0956 -18.7513   5.4897   5.8896   9.9941  10.7667
    12.8942  14.5046  14.7697  16.7141  17.3513  19.0416  21.4228  22.8648
    23.7701

     occupation numbers 
     1.0000   1.0000   1.0000   1.0000   1.0000   1.0000   1.0000   1.0000
     1.0000   1.0000   1.0000   1.0000   1.0000   0.9880   0.0000   0.0000
     0.0000

          k = 0.0846 0.3909 0.0000 (   852 PWs)   bands (ev):

   -54.5412 -20.6703 -19.0735 -18.7865   5.9912   6.5632   9.0573  10.3124
    12.7243  14.5146  15.1994  16.6695  17.0775  18.6767  21.3919  23.6389
    23.6946

     occupation numbers 
     1.0000   1.0000   1.0000   1.0000   1.0000   1.0000   1.0000   1.0000
     1.0000   1.0000   1.0000   1.0000   1.0000   1.0235   0.0000   0.0000
     0.0000

          k = 0.1270 0.2199 0.0000 (   867 PWs)   bands (ev):

   -54.6605 -19.8588 -19.2574 -18.5605   3.0876   3.9312  12.0950  13.0623
    14.4417  14.5402  16.2116  16.3648  17.6292  18.1358  21.4885  22.2994
    23.5261

     occupation numbers 
     1.0000   1.0000   1.0000   1.0000   1.0000   1.0000   1.0000   1.0000
     1.0000   1.0000   1.0000   1.0000   1.0000   1.0000   0.0000   0.0000
     0.0000

          k = 0.1270 0.2688 0.0000 (   870 PWs)   bands (ev):

   -54.6011 -20.1616 -19.1674 -18.8086   4.1646   4.7889  12.4276  12.8486
    13.2029  14.0714  14.9228  16.0611  17.3354  18.3791  20.5870  22.1202
    23.2991

     occupation numbers 
     1.0000   1.0000   1.0000   1.0000   1.0000   1.0000   1.0000   1.0000
     1.0000   1.0000   1.0000   1.0000   1.0000   1.0003   0.0000   0.0000
     0.0000

          k = 0.1270 0.3176 0.0000 (   864 PWs)   bands (ev):

   -54.5553 -20.3810 -19.0968 -19.0035   5.3463   5.7138  11.1420  11.5669
    13.8636  13.9449  14.2606  15.7965  16.7016  19.2646  20.1175  21.8904
    23.0983

     occupation numbers 
     1.0000   1.0000   1.0000   1.0000   1.0000   1.0000   1.0000   1.0000
     1.0000   1.0000   1.0000   1.0000   1.0000   0.4501   0.0000   0.0000
     0.0000

          k = 0.1270 0.3665 0.0000 (   865 PWs)   bands (ev):

   -54.5303 -20.4963 -19.1102 -19.0588   6.2356   6.6233   9.7531  10.7493
    13.5910  14.1819  14.4102  15.9316  16.2956  19.0421  20.1598  22.2574
    23.0335

     occupation numbers 
     1.0000   1.0000   1.0000   1.0000   1.0000   1.0000   1.0000   1.0000
     1.0000   1.0000   1.0000   1.0000   1.0000   0.9871   0.0000   0.0000
     0.0000

          k = 0.1693 0.2932 0.0000 (   868 PWs)   bands (ev):

   -54.5552 -20.2708 -19.1343 -19.0966   5.2855   5.6576  11.9152  12.2391
    13.3004  13.5495  14.6306  15.1935  16.9344  18.8282  19.6575  21.8559
    22.6821

     occupation numbers 
     1.0000   1.0000   1.0000   1.0000   1.0000   1.0000   1.0000   1.0000
     1.0000   1.0000   1.0000   1.0000   1.0000   1.0708   0.0069   0.0000
     0.0000

          k = 0.1693 0.3421 0.0000 (   878 PWs)   bands (ev):

   -54.5245 -20.3009 -19.3942 -19.0508   6.3787   6.5290  10.7665  11.4441
    13.0263  13.2312  14.6255  15.3673  16.7816  19.0579  19.5066  21.4911
    22.2175

     occupation numbers 
     1.0000   1.0000   1.0000   1.0000   1.0000   1.0000   1.0000   1.0000
     1.0000   1.0000   1.0000   1.0000   1.0000   0.9621   0.0544   0.0000
     0.0000

          k = 0.1693 0.3909 0.0000 (   874 PWs)   bands (ev):

   -54.5136 -20.2972 -19.4991 -19.0341   6.8147   7.1233  10.0859  10.9829
    12.8305  13.2883  14.4837  15.7009  16.6902  19.0378  19.5167  21.5004
    22.0469

     occupation numbers 
     1.0000   1.0000   1.0000   1.0000   1.0000   1.0000   1.0000   1.0000
     1.0000   1.0000   1.0000   1.0000   1.0000   0.9935   0.0482   0.0000
     0.0000

          k = 0.2116 0.3665 0.0000 (   876 PWs)   bands (ev):

   -54.5077 -20.1134 -19.7510 -19.0255   7.1107   7.1862  10.7232  11.3098
    11.7389  12.6842  15.0259  15.3597  17.4039  18.2944  20.0021  21.1541
    21.3472

     occupation numbers 
     1.0000   1.0000   1.0000   1.0000   1.0000   1.0000   1.0000   1.0000
     1.0000   1.0000   1.0000   1.0000   1.0000   1.0001   0.0000   0.0000
     0.0000

     the Fermi energy is    19.2838 ev

!    total energy              =    -206.80956498 Ry
     estimated scf accuracy    <          5.9E-12 Ry
     smearing contrib. (-TS)   =      -0.00120906 Ry
     internal energy E=F+TS    =    -206.80835592 Ry

     The total energy is F=E-TS. E is the sum of the following terms:
     one-electron contribution =     -62.99085496 Ry
     hartree contribution      =      49.57927757 Ry
     xc contribution           =     -58.60278649 Ry
     ewald contribution        =    -134.79399205 Ry

     convergence has been achieved in  17 iterations

     negative rho (up, down):  6.304E-02 0.000E+00

     Forces acting on atoms (cartesian axes, Ry/au):

     atom    1 type  2   force =     0.00000000    0.00000000   -0.00001726
     atom    2 type  1   force =     0.00000000    0.00000000    0.00075624
     atom    3 type  1   force =     0.00000000    0.00000000   -0.00073898
     The non-local contrib.  to forces
     atom    1 type  2   force =     0.00000000    0.00000000   -0.00001351
     atom    2 type  1   force =     0.00000000    0.00000000   -0.24163991
     atom    3 type  1   force =     0.00000000    0.00000000    0.24165204
     The ionic contribution  to forces
     atom    1 type  2   force =     0.00000215   -0.00000124   -0.00266034
     atom    2 type  1   force =    -0.00000067    0.00000039   17.01729548
     atom    3 type  1   force =    -0.00000147    0.00000085  -17.01463513
     The local contribution  to forces
     atom    1 type  2   force =     0.00008639   -0.00004988    0.00264926
     atom    2 type  1   force =     0.00000000   -0.00000000  -16.78442536
     atom    3 type  1   force =    -0.00000674    0.00000389   16.78178973
     The core correction contribution to forces
     atom    1 type  2   force =    -0.00000073    0.00000042   -0.00000163
     atom    2 type  1   force =     0.00000000   -0.00000000    0.00951067
     atom    3 type  1   force =     0.00000085   -0.00000049   -0.00954741
     The Hubbard contrib.    to forces
     atom    1 type  2   force =     0.00000000    0.00000000    0.00000000
     atom    2 type  1   force =     0.00000000    0.00000000    0.00000000
     atom    3 type  1   force =     0.00000000    0.00000000    0.00000000
     The SCF correction term to forces
     atom    1 type  2   force =    -0.00000000    0.00000000    0.00000032
     atom    2 type  1   force =     0.00000000   -0.00000000    0.00000672
     atom    3 type  1   force =     0.00000000   -0.00000000   -0.00000685

     Total force =     0.001057     Total SCF correction =     0.000010


     Computing stress (Cartesian axis) and pressure


     negative rho (up, down):  6.304E-02 0.000E+00
          total   stress  (Ry/bohr**3)                   (kbar)     P=      651.61
   0.00658257  -0.00000000   0.00000000          968.33       -0.00        0.00
  -0.00000000   0.00658257   0.00000000           -0.00      968.33        0.00
   0.00000000   0.00000000   0.00012346            0.00        0.00       18.16

     kinetic stress (kbar)  25871.29     -0.00     -0.00
                               -0.00  25871.29     -0.00
                               -0.00     -0.00  24665.22

     local   stress (kbar) -31204.12     -0.00     -0.00
                               -0.00 -31204.12      0.00
                               -0.00      0.00  69905.19

     nonloc. stress (kbar)  -3595.69     -0.00      0.00
                               -0.00  -3595.69      0.00
                                0.00      0.00  -3135.84

     hartree stress (kbar)  24555.16     -0.00     -0.00
                               -0.00  24555.16      0.00
                               -0.00      0.00 -19767.15

     exc-cor stress (kbar)  13018.98      0.00      0.00
                                0.00  13018.98     -0.00
                                0.00     -0.00  13006.78

     corecor stress (kbar) -20078.66     -0.00     -0.00
                               -0.00 -20078.66      0.00
                               -0.00      0.00 -20076.35

     ewald   stress (kbar)  -7598.63      0.00      0.00
                                0.00  -7598.63     -0.00
                                0.00     -0.00 -64579.69

     hubbard stress (kbar)      0.00      0.00      0.00
                                0.00      0.00      0.00
                                0.00      0.00      0.00

     DFT-D   stress (kbar)      0.00      0.00      0.00
                                0.00      0.00      0.00
                                0.00      0.00      0.00

     XDM     stress (kbar)      0.00      0.00      0.00
                                0.00      0.00      0.00
                                0.00      0.00      0.00

     dft-nl  stress (kbar)      0.00      0.00      0.00
                                0.00      0.00      0.00
                                0.00      0.00      0.00

     TS-vdW  stress (kbar)      0.00      0.00      0.00
                                0.00      0.00      0.00
                                0.00      0.00      0.00

     MDB     stress (kbar)      0.00      0.00      0.00
                                0.00      0.00      0.00
                                0.00      0.00      0.00

     3D-RISM stress (kbar)      0.00      0.00      0.00
                                0.00      0.00      0.00
                                0.00      0.00      0.00


     Writing all to output data dir ./out/aiida.save/

     init_run     :    191.01s CPU     82.63s WALL (       2 calls)
     electrons    :  66391.48s CPU  32390.70s WALL (      17 calls)
     update_pot   :     24.34s CPU     13.20s WALL (      15 calls)
     forces       :    531.02s CPU    255.85s WALL (      17 calls)
     stress       :    598.37s CPU    270.46s WALL (      17 calls)

     Called by init_run:
     wfcinit      :    175.37s CPU     73.60s WALL (       2 calls)
     wfcinit:atom :      0.01s CPU      0.01s WALL (      60 calls)
     wfcinit:wfcr :    175.28s CPU     73.52s WALL (      60 calls)
     potinit      :      9.80s CPU      3.51s WALL (       2 calls)
     hinit0       :      4.68s CPU      4.47s WALL (       2 calls)

     Called by electrons:
     c_bands      :  54974.48s CPU  26819.29s WALL (     273 calls)
     sum_band     :  11200.03s CPU   5454.30s WALL (     273 calls)
     v_of_rho     :    123.30s CPU     60.05s WALL (     290 calls)
     v_h          :     21.06s CPU      9.40s WALL (     290 calls)
     v_xc         :    113.96s CPU     56.25s WALL (     324 calls)
     newd         :     51.18s CPU     36.92s WALL (     290 calls)
     mix_rho      :     28.28s CPU     12.78s WALL (     273 calls)

     Called by c_bands:
     init_us_2    :     11.06s CPU      6.98s WALL (   17460 calls)
     init_us_2:cp :     10.80s CPU      6.84s WALL (   17460 calls)
     cegterg      :  54843.00s CPU  26758.49s WALL (    8216 calls)

     Called by sum_band:
     sum_band:wei :      0.50s CPU      0.57s WALL (     273 calls)
     sum_band:loo :  11149.05s CPU   5415.57s WALL (     273 calls)
     sum_band:buf :      0.68s CPU      0.31s WALL (    8190 calls)
     sum_band:ini :      7.16s CPU      3.46s WALL (    8190 calls)
     sum_band:cal :     83.96s CPU     64.33s WALL (    8190 calls)
     sum_band:bec :    388.54s CPU    158.58s WALL (    8190 calls)
     addusdens    :     20.45s CPU     22.13s WALL (     273 calls)
                                        0.00s GPU  (     273 calls)
     addusd:skk   :      0.03s CPU      0.03s WALL (     546 calls)
                                        0.00s GPU  (     546 calls)

     Called by *egterg:
     cdiaghg      :     48.43s CPU     48.91s WALL (   33270 calls)
     cegterg:over :    156.60s CPU    127.13s WALL (   25527 calls)
     cegterg:upda :    389.59s CPU    156.81s WALL (   25527 calls)
     cegterg:last :      8.32s CPU      9.03s WALL (   18735 calls)
     h_psi        :  52846.33s CPU  25745.66s WALL (   33803 calls)
     s_psi        :     62.65s CPU     22.57s WALL (   33803 calls)
     g_psi        :    382.20s CPU    153.11s WALL (   25527 calls)

     Called by h_psi:
     h_psi:calbec :    324.58s CPU    256.67s WALL (   33803 calls)
     vloc_psi     :  51957.29s CPU  25257.41s WALL (   33803 calls)
     add_vuspsi   :     13.54s CPU     12.76s WALL (   33803 calls)

     General routines
     calbec       :    480.18s CPU    404.30s WALL (   44543 calls)
     fft          :    160.45s CPU     77.72s WALL (    4176 calls)
     ffts         :     30.82s CPU     14.64s WALL (     563 calls)
     fftw         :  39252.06s CPU  21019.10s WALL (  910330 calls)
     interpolate  :     30.05s CPU     13.23s WALL (     290 calls)

     Parallel routines

     PWSCF        :     18h49m CPU      9h10m WALL


   This run was terminated on:   8:10:20  24Feb2025            

=------------------------------------------------------------------------------=
   JOB DONE.
=------------------------------------------------------------------------------=
